
                                 *****************
                                 * O   R   C   A *
                                 *****************

           --- An Ab Initio, DFT and Semiempirical electronic structure package ---

                  #######################################################
                  #                        -***-                        #
                  #  Department of molecular theory and spectroscopy    #
                  #              Directorship: Frank Neese              #
                  # Max Planck Institute for Chemical Energy Conversion #
                  #                  D-45470 Muelheim/Ruhr              #
                  #                       Germany                       #
                  #                                                     #
                  #                  All rights reserved                #
                  #                        -***-                        #
                  #######################################################


                         Program Version 4.0.0 -  RELEASE  -


 With contributions from (in alphabetic order):
   Daniel Aravena         : Magnetic Properties
   Michael Atanasov       : Ab Initio Ligand Field Theory
   Ute Becker             : Parallelization
   Martin Brehm           : Molecular dynamics
   Dmytro Bykov           : SCF Hessian
   Vijay G. Chilkuri      : MRCI spin determinant printing
   Dipayan Datta          : RHF DLPNO-CCSD density
   Achintya Kumar Dutta   : EOM-CC, STEOM-CC
   Dmitry Ganyushin       : Spin-Orbit,Spin-Spin,Magnetic field MRCI
   Yang Guo               : DLPNO-NEVPT2, CIM, IAO-localization
   Andreas Hansen         : Spin unrestricted coupled pair/coupled cluster methods
   Lee Huntington         : MR-EOM, pCC
   Robert Izsak           : Overlap fitted RIJCOSX, COSX-SCS-MP3, EOM
   Christian Kollmar      : KDIIS, OOCD, Brueckner-CCSD(T), CCSD density
   Simone Kossmann        : Meta GGA functionals, TD-DFT gradient, OOMP2, MP2 Hessian
   Martin Krupicka        : AUTO-CI
   Dagmar Lenk            : GEPOL surface
   Dimitrios Liakos       : Extrapolation schemes; parallel MDCI
   Dimitrios Manganas     : ROCIS; embedding schemes
   Dimitrios Pantazis     : SARC Basis sets
   Taras Petrenko         : DFT Hessian,TD-DFT gradient, ASA, ECA, R-Raman, ABS, FL, XAS/XES, NRVS
   Peter Pinski           : DLPNO-MP2
   Christoph Reimann      : Effective Core Potentials
   Marius Retegan         : Local ZFS, SOC
   Christoph Riplinger    : Optimizer, TS searches, QM/MM, DLPNO-CCSD(T), (RO)-DLPNO pert. Triples
   Tobias Risthaus        : Range-separated hybrids, TD-DFT gradient, RPA, STAB
   Michael Roemelt        : Restricted open shell CIS
   Masaaki Saitow         : Open-shell DLPNO
   Barbara Sandhoefer     : DKH picture change effects
   Kantharuban Sivalingam : CASSCF convergence, NEVPT2, FIC-MRCI
   Georgi Stoychev        : AutoAux
   Boris Wezisla          : Elementary symmetry handling
   Frank Wennmohs         : Technical directorship


 We gratefully acknowledge several colleagues who have allowed us to
 interface, adapt or use parts of their codes:
   Stefan Grimme, W. Hujo, H. Kruse,             : VdW corrections, initial TS optimization,
                  C. Bannwarth                     DFT functionals, gCP, sTDA/sTD-DF
   Ed Valeev                                     : LibInt (2-el integral package), F12 methods
   Garnet Chan, S. Sharma, J. Yang, R. Olivares  : DMRG
   Ulf Ekstrom                                   : XCFun DFT Library
   Mihaly Kallay                                 : mrcc  (arbitrary order and MRCC methods)
   Jiri Pittner, Ondrej Demel                    : Mk-CCSD
   Frank Weinhold                                : gennbo (NPA and NBO analysis)
   Christopher J. Cramer and Donald G. Truhlar   : smd solvation model


 Your calculation uses the libint2 library for the computation of 2-el integrals
 For citations please refer to: http://libint.valeyev.net

 This ORCA versions uses:
   CBLAS   interface :  Fast vector & matrix operations
   LAPACKE interface :  Fast linear algebra routines
   SCALAPACK package :  Parallel linear algebra routines


Your calculation utilizes the atom-pairwise dispersion correction
with the zero-damping scheme (D30)
Cite in your paper:
S.Grimme, J.Antony, S.Ehrlich and H.Krieg, J.Chem.Phys., 132, (2010), 154104 
   

XCFun DFT library Copyright 2009-2010 Ulf Ekstrom and contributors.
See http://admol.org/xcfun for more information. This is free soft-
ware; see the source code for copying conditions. There is ABSOLUTELY
NO WARRANTY; not even for MERCHANTABILITY or FITNESS FOR A PARTICULAR
PURPOSE. For details see the documentation. Scientific users of this 
library should cite U. Ekstrom, L. Visscher, R. Bast, A. J. Thorvald-
sen and K. Ruud; J.Chem.Theor.Comp. 2010, DOI: 10.1021/ct100117s
XCFun Version 0.99 
Your calculation utilizes the basis: def2-TZVP
   F. Weigend and R. Ahlrichs, Phys. Chem. Chem. Phys. 7, 3297 (2005).

Your calculation utilizes the auxiliary basis: def2/J
   F. Weigend, Phys. Chem. Chem. Phys. 8, 1057 (2006).

================================================================================
                                        WARNINGS
                       Please study these warnings very carefully!
================================================================================

Warning: TCutStore was < 0. Adjusted to Thresh (uncritical)
INFO   : Checking CIS options ...

WARNING: CIS/ROCIS methods need fully converged wavefunctions
  ===> : Setting SCFConvForced true
         You can overwrite this default with %scf ConvForced false 


INFO   : the flag for use of LIBINT has been found!

Your calculation utilizes the atom-pairwise dispersion correction
with the zero-damping scheme (D30)
Cite in your paper:
S.Grimme, J.Antony, S.Ehrlich and H.Krieg, J.Chem.Phys., 132, (2010), 154104 
   

XCFun DFT library Copyright 2009-2010 Ulf Ekstrom and contributors.
See http://admol.org/xcfun for more information. This is free soft-
ware; see the source code for copying conditions. There is ABSOLUTELY
NO WARRANTY; not even for MERCHANTABILITY or FITNESS FOR A PARTICULAR
PURPOSE. For details see the documentation. Scientific users of this 
library should cite U. Ekstrom, L. Visscher, R. Bast, A. J. Thorvald-
sen and K. Ruud; J.Chem.Theor.Comp. 2010, DOI: 10.1021/ct100117s
XCFun Version 0.99 
Your calculation utilizes the basis: def2-TZVP
   F. Weigend and R. Ahlrichs, Phys. Chem. Chem. Phys. 7, 3297 (2005).

Your calculation utilizes the auxiliary basis: def2/J
   F. Weigend, Phys. Chem. Chem. Phys. 8, 1057 (2006).

================================================================================
                                        WARNINGS
                       Please study these warnings very carefully!
================================================================================

INFO   : Checking CIS options ...

INFO   : the flag for use of LIBINT has been found!

================================================================================
                                       INPUT FILE
================================================================================
NAME = total.inp
|  1> # 
|  2> !wB97X-D3 def2-TZVP def2/J RIJCOSX Grid5 FinalGrid6 TightSCF
|  3> %pal 
|  4>  nprocs 24
|  5> end
|  6> %tddft
|  7>   Mode sTDDFT
|  8>   nroots 2
|  9>   Ethresh 10.0
| 10>   maxcore 5000
| 11>   triplets true
| 12> end
| 13> * xyz 0 1 
| 14> C 4.34400260 3.07660043 1.02212692
| 15> C 3.86757934 1.81853043 0.66245115
| 16> C 4.78822418 0.80665791 0.32975699
| 17> C 6.17748074 1.11091882 0.38538519
| 18> C 6.66003216 2.37984035 0.74066048
| 19> C 5.72109375 3.35829006 1.05720890
| 20> C 4.68549538 -0.59223718 -0.05635589
| 21> C 6.02582189 -1.06108086 -0.19443589
| 22> N 6.90175310 -0.02170654 0.05725778
| 23> C 6.34518082 -2.38880385 -0.51449911
| 24> C 5.28632758 -3.27810332 -0.68561334
| 25> C 3.95979055 -2.84906677 -0.55466739
| 26> C 3.62159622 -1.51415753 -0.25965730
| 27> H 3.15952298 -3.56886167 -0.71093675
| 28> H 7.91186946 -0.09007316 0.03916637
| 29> H 5.48800885 -4.31776107 -0.92701084
| 30> H 2.79874263 1.62756202 0.63712337
| 31> H 7.72629340 2.58746038 0.77197707
| 32> H 6.05685122 4.35322245 1.33751834
| 33> H 3.63744648 3.86122516 1.27877628
| 34> S -2.81317253 0.11511646 -0.09292858
| 35> C -4.06008462 -1.07574075 0.30638654
| 36> N -3.56659191 -2.28419191 0.56188405
| 37> N -2.20712547 -2.35432045 0.46353530
| 38> C -1.64677629 -1.19572261 0.13040107
| 39> C -0.22133857 -1.02113511 -0.03309067
| 40> N 0.34786530 0.12885967 -0.36984721
| 41> N 1.71012620 0.05150505 -0.46391864
| 42> C 2.20260976 -1.14874747 -0.19688173
| 43> S 0.93710276 -2.33859003 0.19706917
| 44> C -5.62710824 2.73607668 -0.49992955
| 45> N -5.11878036 1.53511792 -0.24702106
| 46> C -5.99440391 0.53198139 0.07484174
| 47> C -7.40166029 0.78488517 0.13232093
| 48> N -7.90363091 2.03697669 -0.13364819
| 49> C -7.02662523 2.98485016 -0.44210721
| 50> C -8.28773531 -0.27608064 0.46936288
| 51> C -7.78467786 -1.53454549 0.73675946
| 52> C -6.39948879 -1.78930636 0.68156887
| 53> C -5.49023985 -0.78356905 0.35620146
| 54> H -6.02754829 -2.78751099 0.89594566
| 55> H -8.46089537 -2.34552657 0.99427976
| 56> H -7.41606137 3.98732850 -0.65618363
| 57> H -4.92821712 3.53988028 -0.75770012
| 58> H 7.37774507 -2.71144466 -0.61382641
| 59> H -9.35640014 -0.08430194 0.51309379
| 60> *
| 61> $new_job
| 62> # 
| 63> !wB97X-D3 def2-TZVP def2/J RIJCOSX Grid5 FinalGrid6 TightSCF
| 64> %pal 
| 65>  nprocs 24
| 66> end
| 67> %elprop
| 68>    dipole     true
| 69>    quadrupole true
| 70> end
| 71> %tddft
| 72>   Mode sTDDFT
| 73>   nroots 2
| 74>   Ethresh 10.0
| 75>   maxcore 5000
| 76> end
| 77> * xyz 0 1 
| 78> C 4.34400260 3.07660043 1.02212692
| 79> C 3.86757934 1.81853043 0.66245115
| 80> C 4.78822418 0.80665791 0.32975699
| 81> C 6.17748074 1.11091882 0.38538519
| 82> C 6.66003216 2.37984035 0.74066048
| 83> C 5.72109375 3.35829006 1.05720890
| 84> C 4.68549538 -0.59223718 -0.05635589
| 85> C 6.02582189 -1.06108086 -0.19443589
| 86> N 6.90175310 -0.02170654 0.05725778
| 87> C 6.34518082 -2.38880385 -0.51449911
| 88> C 5.28632758 -3.27810332 -0.68561334
| 89> C 3.95979055 -2.84906677 -0.55466739
| 90> C 3.62159622 -1.51415753 -0.25965730
| 91> H 3.15952298 -3.56886167 -0.71093675
| 92> H 7.91186946 -0.09007316 0.03916637
| 93> H 5.48800885 -4.31776107 -0.92701084
| 94> H 2.79874263 1.62756202 0.63712337
| 95> H 7.72629340 2.58746038 0.77197707
| 96> H 6.05685122 4.35322245 1.33751834
| 97> H 3.63744648 3.86122516 1.27877628
| 98> S -2.81317253 0.11511646 -0.09292858
| 99> C -4.06008462 -1.07574075 0.30638654
|100> N -3.56659191 -2.28419191 0.56188405
|101> N -2.20712547 -2.35432045 0.46353530
|102> C -1.64677629 -1.19572261 0.13040107
|103> C -0.22133857 -1.02113511 -0.03309067
|104> N 0.34786530 0.12885967 -0.36984721
|105> N 1.71012620 0.05150505 -0.46391864
|106> C 2.20260976 -1.14874747 -0.19688173
|107> S 0.93710276 -2.33859003 0.19706917
|108> C -5.62710824 2.73607668 -0.49992955
|109> N -5.11878036 1.53511792 -0.24702106
|110> C -5.99440391 0.53198139 0.07484174
|111> C -7.40166029 0.78488517 0.13232093
|112> N -7.90363091 2.03697669 -0.13364819
|113> C -7.02662523 2.98485016 -0.44210721
|114> C -8.28773531 -0.27608064 0.46936288
|115> C -7.78467786 -1.53454549 0.73675946
|116> C -6.39948879 -1.78930636 0.68156887
|117> C -5.49023985 -0.78356905 0.35620146
|118> H -6.02754829 -2.78751099 0.89594566
|119> H -8.46089537 -2.34552657 0.99427976
|120> H -7.41606137 3.98732850 -0.65618363
|121> H -4.92821712 3.53988028 -0.75770012
|122> H 7.37774507 -2.71144466 -0.61382641
|123> H -9.35640014 -0.08430194 0.51309379
|124> *
|125> 
|126>                          ****END OF INPUT****
================================================================================


                 $$$$$$$$$$$$$$$$$$$$$$$$$$$$$$$$$$$$$$$$$$$$$$ 
                 $ THERE ARE  2 JOBS TO BE PROCESSED THIS RUN $
                 $$$$$$$$$$$$$$$$$$$$$$$$$$$$$$$$$$$$$$$$$$$$$$ 




                 $$$$$$$$$$$$$$$$  JOB NUMBER  1 $$$$$$$$$$$$$$


                       ****************************
                       * Single Point Calculation *
                       ****************************

---------------------------------
CARTESIAN COORDINATES (ANGSTROEM)
---------------------------------
  C      4.344003    3.076600    1.022127
  C      3.867579    1.818530    0.662451
  C      4.788224    0.806658    0.329757
  C      6.177481    1.110919    0.385385
  C      6.660032    2.379840    0.740660
  C      5.721094    3.358290    1.057209
  C      4.685495   -0.592237   -0.056356
  C      6.025822   -1.061081   -0.194436
  N      6.901753   -0.021707    0.057258
  C      6.345181   -2.388804   -0.514499
  C      5.286328   -3.278103   -0.685613
  C      3.959791   -2.849067   -0.554667
  C      3.621596   -1.514158   -0.259657
  H      3.159523   -3.568862   -0.710937
  H      7.911869   -0.090073    0.039166
  H      5.488009   -4.317761   -0.927011
  H      2.798743    1.627562    0.637123
  H      7.726293    2.587460    0.771977
  H      6.056851    4.353222    1.337518
  H      3.637446    3.861225    1.278776
  S     -2.813173    0.115116   -0.092929
  C     -4.060085   -1.075741    0.306387
  N     -3.566592   -2.284192    0.561884
  N     -2.207125   -2.354320    0.463535
  C     -1.646776   -1.195723    0.130401
  C     -0.221339   -1.021135   -0.033091
  N      0.347865    0.128860   -0.369847
  N      1.710126    0.051505   -0.463919
  C      2.202610   -1.148747   -0.196882
  S      0.937103   -2.338590    0.197069
  C     -5.627108    2.736077   -0.499930
  N     -5.118780    1.535118   -0.247021
  C     -5.994404    0.531981    0.074842
  C     -7.401660    0.784885    0.132321
  N     -7.903631    2.036977   -0.133648
  C     -7.026625    2.984850   -0.442107
  C     -8.287735   -0.276081    0.469363
  C     -7.784678   -1.534545    0.736759
  C     -6.399489   -1.789306    0.681569
  C     -5.490240   -0.783569    0.356201
  H     -6.027548   -2.787511    0.895946
  H     -8.460895   -2.345527    0.994280
  H     -7.416061    3.987328   -0.656184
  H     -4.928217    3.539880   -0.757700
  H      7.377745   -2.711445   -0.613826
  H     -9.356400   -0.084302    0.513094

----------------------------
CARTESIAN COORDINATES (A.U.)
----------------------------
  NO LB      ZA    FRAG     MASS         X           Y           Z
   0 C     6.0000    0    12.011    8.208975    5.813932    1.931540
   1 C     6.0000    0    12.011    7.308666    3.436524    1.251851
   2 C     6.0000    0    12.011    9.048432    1.524363    0.623150
   3 C     6.0000    0    12.011   11.673747    2.099332    0.728272
   4 C     6.0000    0    12.011   12.585637    4.497247    1.399645
   5 C     6.0000    0    12.011   10.811300    6.346248    1.997835
   6 C     6.0000    0    12.011    8.854303   -1.119166   -0.106497
   7 C     6.0000    0    12.011   11.387153   -2.005152   -0.367431
   8 N     7.0000    0    14.007   13.042423   -0.041019    0.108202
   9 C     6.0000    0    12.011   11.990654   -4.514185   -0.972262
  10 C     6.0000    0    12.011    9.989711   -6.194718   -1.295621
  11 C     6.0000    0    12.011    7.482920   -5.383956   -1.048169
  12 C     6.0000    0    12.011    6.843825   -2.861343   -0.490681
  13 H     1.0000    0     1.008    5.970633   -6.744171   -1.343476
  14 H     1.0000    0     1.008   14.951266   -0.170214    0.074014
  15 H     1.0000    0     1.008   10.370834   -8.159386   -1.751797
  16 H     1.0000    0     1.008    5.288857    3.075646    1.203989
  17 H     1.0000    0     1.008   14.600579    4.889592    1.458825
  18 H     1.0000    0     1.008   11.445790    8.226398    2.527543
  19 H     1.0000    0     1.008    6.873778    7.296658    2.416537
  20 S    16.0000    0    32.060   -5.316126    0.217539   -0.175610
  21 C     6.0000    0    12.011   -7.672448   -2.032855    0.578987
  22 N     7.0000    0    14.007   -6.739882   -4.316497    1.061807
  23 N     7.0000    0    14.007   -4.170863   -4.449021    0.875955
  24 C     6.0000    0    12.011   -3.111956   -2.259588    0.246422
  25 C     6.0000    0    12.011   -0.418269   -1.929666   -0.062532
  26 N     7.0000    0    14.007    0.657370    0.243509   -0.698910
  27 N     7.0000    0    14.007    3.231670    0.097330   -0.876679
  28 C     6.0000    0    12.011    4.162329   -2.170818   -0.372053
  29 S    16.0000    0    32.060    1.770868   -4.419295    0.372407
  30 C     6.0000    0    12.011  -10.633693    5.170436   -0.944730
  31 N     7.0000    0    14.007   -9.673093    2.900952   -0.466802
  32 C     6.0000    0    12.011  -11.327782    1.005299    0.141430
  33 C     6.0000    0    12.011  -13.987111    1.483218    0.250050
  34 N     7.0000    0    14.007  -14.935698    3.849328   -0.252558
  35 C     6.0000    0    12.011  -13.278397    5.640549   -0.835462
  36 C     6.0000    0    12.011  -15.661550   -0.521717    0.886967
  37 C     6.0000    0    12.011  -14.710909   -2.899871    1.392274
  38 C     6.0000    0    12.011  -12.093281   -3.381299    1.287979
  39 C     6.0000    0    12.011  -10.375050   -1.480731    0.673123
  40 H     1.0000    0     1.008  -11.390416   -5.267632    1.693092
  41 H     1.0000    0     1.008  -15.988775   -4.432403    1.878916
  42 H     1.0000    0     1.008  -14.014325    7.534959   -1.240007
  43 H     1.0000    0     1.008   -9.312981    6.689404   -1.431846
  44 H     1.0000    0     1.008   13.941918   -5.123888   -1.159964
  45 H     1.0000    0     1.008  -17.681034   -0.159308    0.969607

--------------------------------
INTERNAL COORDINATES (ANGSTROEM)
--------------------------------
 C      0   0   0     0.000000000000     0.00000000     0.00000000
 C      1   0   0     1.392510648826     0.00000000     0.00000000
 C      2   1   0     1.407891445477   119.11971879     0.00000000
 C      3   2   1     1.423271930269   118.38601630     0.48445957
 C      4   3   2     1.403295497722   122.60554912   359.15186263
 C      5   4   3     1.392541588240   117.45461985     0.54203475
 C      3   2   1     1.454834641902   135.04168470   178.50304358
 C      7   3   2     1.426658906706   105.98241326   182.61701692
 N      8   7   3     1.382354572910   109.30469213   358.72401772
 C      8   7   3     1.402597208447   123.16732256   177.69300369
 C     10   8   7     1.393306789946   117.33436514   359.22166517
 C     11  10   8     1.400328423984   120.85537006     0.65233842
 C     12  11  10     1.408328454972   122.51246949     0.59377397
 H     12  11  10     1.087636425712   118.73860089   179.04605943
 H      9   8   7     1.012588936630   125.31606189   179.08830794
 H     11  10   8     1.086202708895   119.80853443   180.44851937
 H      2   1   3     1.086058167273   120.10532264   180.22808338
 H      5   4   3     1.086738164229   121.16076551   180.23065913
 H      6   5   4     1.086828837253   119.57426102   179.97895075
 H      1   2   3     1.086612355730   119.40033413   179.93717225
 S     17   2   1     5.857820344181   172.36557894   146.71923671
 C     21  17   2     1.769854010888   145.14094718    84.80184203
 N     22  21  17     1.330100837736   113.15769938   332.82560114
 N     23  22  21     1.364822146009   113.72859510     0.00000000
 C     24  23  22     1.329405345851   113.14914590     0.00000000
 C     25  24  23     1.445366056680   123.31960056   179.96487020
 N     26  25  24     1.326606952674   123.81930906   179.74866142
 N     27  26  25     1.367694385031   113.31550716   179.96444514
 C     28  27  26     1.324558371662   114.06147182   359.71981031
 S     26  25  24     1.769363539026   122.75451169   359.88638875
 C     21  17   2     3.866951828562   122.36148524   232.11531380
 N     31  21  17     1.328405766745    24.32083925   198.00008001
 C     32  31  21     1.369888740431   117.52656040   179.99761730
 C     33  32  31     1.430955868737   120.57221354     0.00000000
 N     34  33  32     1.374935362333   120.81161039     0.00000000
 C     35  34  33     1.327685973753   116.99584897     0.00000000
 C     34  33  32     1.422805210532   119.35218281   180.00145454
 C     37  34  33     1.381412866482   119.89317435     0.00000000
 C     38  37  34     1.409502700159   120.99472062     0.00000000
 C     39  38  37     1.394311702277   121.30725778     0.00000000
 H     39  38  37     1.086604632322   119.65044623   180.00158431
 H     38  37  34     1.086865740494   119.93699907   180.00092942
 H     36  35  34     1.096563743203   117.60930775   179.99611463
 H     31  21  17     1.095899033555    93.31450789    18.00715607
 H     10   8   7     1.086347980705   121.22660106   179.87660540
 H     37  34  33     1.086616759093   119.36712019   179.99920733

---------------------------
INTERNAL COORDINATES (A.U.)
---------------------------
 C      0   0   0     0.000000000000     0.00000000     0.00000000
 C      1   0   0     2.631463764850     0.00000000     0.00000000
 C      2   1   0     2.660529258242   119.11971879     0.00000000
 C      3   2   1     2.689594162306   118.38601630     0.48445957
 C      4   3   2     2.651844175659   122.60554912   359.15186263
 C      5   4   3     2.631522231869   117.45461985     0.54203475
 C      3   2   1     2.749239043336   135.04168470   178.50304358
 C      7   3   2     2.695994620195   105.98241326   182.61701692
 N      8   7   3     2.612271562774   109.30469213   358.72401772
 C      8   7   3     2.650524600166   123.16732256   177.69300369
 C     10   8   7     2.632968253531   117.33436514   359.22166517
 C     11  10   8     2.646237218876   120.85537006     0.65233842
 C     12  11  10     2.661355086505   122.51246949     0.59377397
 H     12  11  10     2.055334977872   118.73860089   179.04605943
 H      9   8   7     1.913515776469   125.31606189   179.08830794
 H     11  10   8     2.052625645734   119.80853443   180.44851937
 H      2   1   3     2.052352501655   120.10532264   180.22808338
 H      5   4   3     2.053637509674   121.16076551   180.23065913
 H      6   5   4     2.053808856857   119.57426102   179.97895075
 H      1   2   3     2.053399766065   119.40033413   179.93717225
 S     17   2   1    11.069676192214   172.36557894   146.71923671
 C     21  17   2     3.344539377601   145.14094718    84.80184203
 N     22  21  17     2.513526313819   113.15769938   332.82560114
 N     23  22  21     2.579140077467   113.72859510     0.00000000
 C     24  23  22     2.512212024629   113.14914590     0.00000000
 C     25  24  23     2.731346010391   123.31960056   179.96487020
 N     26  25  24     2.506923827910   123.81930906   179.74866142
 N     27  26  25     2.584567822611   113.31550716   179.96444514
 C     28  27  26     2.503052570833   114.06147182   359.71981031
 S     26  25  24     3.343612520104   122.75451169   359.88638875
 C     21  17   2     7.307479929048   122.36148524   232.11531380
 N     31  21  17     2.510323093869    24.32083925   198.00008001
 C     32  31  21     2.588714553356   117.52656040   179.99761730
 C     33  32  31     2.704114701640   120.57221354     0.00000000
 N     34  33  32     2.598251286652   120.81161039     0.00000000
 C     35  34  33     2.508962882242   116.99584897     0.00000000
 C     34  33  32     2.688712189821   119.35218281   180.00145454
 C     37  34  33     2.610491995526   119.89317435     0.00000000
 C     38  37  34     2.663574088323   120.99472062     0.00000000
 C     39  38  37     2.634867262626   121.30725778     0.00000000
 H     39  38  37     2.053385170939   119.65044623   180.00158431
 H     38  37  34     2.053878593876   119.93699907   180.00092942
 H     36  35  34     2.072205163041   117.60930775   179.99611463
 H     31  21  17     2.070949043847    93.31450789    18.00715607
 H     10   8   7     2.052900169670   121.22660106   179.87660540
 H     37  34  33     2.053408087215   119.36712019   179.99920733

---------------------
BASIS SET INFORMATION
---------------------
There are 4 groups of distinct atoms

 Group   1 Type C   : 11s6p2d1f contracted to 5s3p2d1f pattern {62111/411/11/1}
 Group   2 Type N   : 11s6p2d1f contracted to 5s3p2d1f pattern {62111/411/11/1}
 Group   3 Type H   : 5s1p contracted to 3s1p pattern {311/1}
 Group   4 Type S   : 14s9p3d1f contracted to 5s5p2d1f pattern {73211/51111/21/1}

Atom   0C    basis set group =>   1
Atom   1C    basis set group =>   1
Atom   2C    basis set group =>   1
Atom   3C    basis set group =>   1
Atom   4C    basis set group =>   1
Atom   5C    basis set group =>   1
Atom   6C    basis set group =>   1
Atom   7C    basis set group =>   1
Atom   8N    basis set group =>   2
Atom   9C    basis set group =>   1
Atom  10C    basis set group =>   1
Atom  11C    basis set group =>   1
Atom  12C    basis set group =>   1
Atom  13H    basis set group =>   3
Atom  14H    basis set group =>   3
Atom  15H    basis set group =>   3
Atom  16H    basis set group =>   3
Atom  17H    basis set group =>   3
Atom  18H    basis set group =>   3
Atom  19H    basis set group =>   3
Atom  20S    basis set group =>   4
Atom  21C    basis set group =>   1
Atom  22N    basis set group =>   2
Atom  23N    basis set group =>   2
Atom  24C    basis set group =>   1
Atom  25C    basis set group =>   1
Atom  26N    basis set group =>   2
Atom  27N    basis set group =>   2
Atom  28C    basis set group =>   1
Atom  29S    basis set group =>   4
Atom  30C    basis set group =>   1
Atom  31N    basis set group =>   2
Atom  32C    basis set group =>   1
Atom  33C    basis set group =>   1
Atom  34N    basis set group =>   2
Atom  35C    basis set group =>   1
Atom  36C    basis set group =>   1
Atom  37C    basis set group =>   1
Atom  38C    basis set group =>   1
Atom  39C    basis set group =>   1
Atom  40H    basis set group =>   3
Atom  41H    basis set group =>   3
Atom  42H    basis set group =>   3
Atom  43H    basis set group =>   3
Atom  44H    basis set group =>   3
Atom  45H    basis set group =>   3
-------------------------------
AUXILIARY BASIS SET INFORMATION
-------------------------------
There are 4 groups of distinct atoms

 Group   1 Type C   : 12s5p4d2f1g contracted to 6s4p3d1f1g pattern {711111/2111/211/2/1}
 Group   2 Type N   : 12s5p4d2f1g contracted to 6s4p3d1f1g pattern {711111/2111/211/2/1}
 Group   3 Type H   : 5s2p1d contracted to 3s1p1d pattern {311/2/1}
 Group   4 Type S   : 14s5p5d2f1g contracted to 8s4p3d1f1g pattern {71111111/2111/311/2/1}

Atom   0C    basis set group =>   1
Atom   1C    basis set group =>   1
Atom   2C    basis set group =>   1
Atom   3C    basis set group =>   1
Atom   4C    basis set group =>   1
Atom   5C    basis set group =>   1
Atom   6C    basis set group =>   1
Atom   7C    basis set group =>   1
Atom   8N    basis set group =>   2
Atom   9C    basis set group =>   1
Atom  10C    basis set group =>   1
Atom  11C    basis set group =>   1
Atom  12C    basis set group =>   1
Atom  13H    basis set group =>   3
Atom  14H    basis set group =>   3
Atom  15H    basis set group =>   3
Atom  16H    basis set group =>   3
Atom  17H    basis set group =>   3
Atom  18H    basis set group =>   3
Atom  19H    basis set group =>   3
Atom  20S    basis set group =>   4
Atom  21C    basis set group =>   1
Atom  22N    basis set group =>   2
Atom  23N    basis set group =>   2
Atom  24C    basis set group =>   1
Atom  25C    basis set group =>   1
Atom  26N    basis set group =>   2
Atom  27N    basis set group =>   2
Atom  28C    basis set group =>   1
Atom  29S    basis set group =>   4
Atom  30C    basis set group =>   1
Atom  31N    basis set group =>   2
Atom  32C    basis set group =>   1
Atom  33C    basis set group =>   1
Atom  34N    basis set group =>   2
Atom  35C    basis set group =>   1
Atom  36C    basis set group =>   1
Atom  37C    basis set group =>   1
Atom  38C    basis set group =>   1
Atom  39C    basis set group =>   1
Atom  40H    basis set group =>   3
Atom  41H    basis set group =>   3
Atom  42H    basis set group =>   3
Atom  43H    basis set group =>   3
Atom  44H    basis set group =>   3
Atom  45H    basis set group =>   3
-------------------------
ECP PARAMETER INFORMATION
-------------------------



--------------------------------------------------------------------------
[[36728,1],6]: A high-performance Open MPI point-to-point messaging module
was unable to find any relevant network interfaces:

Module: OpenFabrics (openib)
  Host: cx1-105-14-4

Another transport will be used instead, although this may result in
lower performance.
--------------------------------------------------------------------------


           ************************************************************
           *        Program running with 24 parallel MPI-processes    *
           *              working on a common directory               *
           ************************************************************
------------------------------------------------------------------------------
                           ORCA GTO INTEGRAL CALCULATION
                           -- RI-GTO INTEGRALS CHOSEN --
------------------------------------------------------------------------------

                         BASIS SET STATISTICS AND STARTUP INFO

Gaussian basis set:
 # of primitive gaussian shells          ...  752
 # of primitive gaussian functions       ... 1656
 # of contracted shells                  ...  419
 # of contracted basis functions         ... 1113
 Highest angular momentum                ...    3
 Maximum contraction depth               ...    7
Auxiliary gaussian basis set:
 # of primitive gaussian shells          ...  902
 # of primitive gaussian functions       ... 2532
 # of contracted shells                  ...  564
 # of contracted aux-basis functions     ... 1764
 Highest angular momentum                ...    4
 Maximum contraction depth               ...    7
Ratio of auxiliary to basis functions    ...  1.58
Integral package used                  ... LIBINT
 One Electron integrals                  
   ECP integrals                         ... done
 Ordering auxiliary basis shells         ... done
 Integral threshhold             Thresh  ...  2.500e-11
 Primitive cut-off               TCut    ...  2.500e-12
 Pre-screening matrix                    ... done
 Shell pair data                         ... 
 Ordering of the shell pairs             ... done (   0.015 sec) 43736 of 87990 pairs
 Determination of significant pairs      ... done (   0.000 sec)
 Creation of shell pair data             ... done (   0.010 sec)
 Storage of shell pair data              ... done (   0.112 sec)
 Shell pair data done in (   0.137 sec)
 Computing two index integrals           ... done
 Cholesky decomposition of the V-matrix  ... done


Timings:
 Total evaluation time                   ...   5.561 sec (  0.093 min)
 One electron matrix time                ...   1.523 sec (  0.025 min) = 27.4%
 Schwartz matrix evaluation time         ...   2.852 sec (  0.048 min) = 51.3%
 Two index repulsion integral time       ...   0.420 sec (  0.007 min) =  7.5%
 Cholesky decomposition of V             ...   0.579 sec (  0.010 min) = 10.4%
 Three index repulsion integral time     ...   0.000 sec (  0.000 min) =  0.0%

--------------------------------------------------------------------------
[[36778,1],10]: A high-performance Open MPI point-to-point messaging module
was unable to find any relevant network interfaces:

Module: OpenFabrics (openib)
  Host: cx1-105-14-4

Another transport will be used instead, although this may result in
lower performance.
--------------------------------------------------------------------------


           ************************************************************
           *        Program running with 24 parallel MPI-processes    *
           *              working on a common directory               *
           ************************************************************
-------------------------------------------------------------------------------
                                 ORCA SCF
-------------------------------------------------------------------------------

------------
SCF SETTINGS
------------
Hamiltonian:
 Density Functional     Method          .... DFT(GTOs)
 Exchange Functional    Exchange        .... WB97X-D3
 Correlation Functional Correlation     .... WB97X-D3
 Gradients option       PostSCFGGA      .... off
 Hybrid DFT is turned on
   Fraction HF Exchange ScalHFX         ....  0.195728
   Scaling of DF-GGA-X  ScalDFX         ....  0.000000
   Scaling of DF-GGA-C  ScalDFC         ....  1.000000
   Scaling of DF-LDA-C  ScalLDAC        ....  1.000000
   Perturbative correction              ....  0.000000
 Long-range corrected/Screened/Range-Separated Hybrid DFT is turned on
   Amount of maximum screened exact exchange              ....  0.804272
   Range separation parameter mu (erf(mu*r12)/r12)        ....  0.250000
 RI-approximation to the Coulomb term is turned on
   Number of auxiliary basis functions  .... 1764
   RIJ-COSX (HFX calculated with COS-X)).... on


General Settings:
 Integral files         IntName         .... total
 Hartree-Fock type      HFTyp           .... RHF
 Total Charge           Charge          ....    0
 Multiplicity           Mult            ....    1
 Number of Electrons    NEL             ....  238
 Basis Dimension        Dim             .... 1113
 Nuclear Repulsion      ENuc            ....   3181.4722450511 Eh

Convergence Acceleration:
 DIIS                   CNVDIIS         .... on
   Start iteration      DIISMaxIt       ....    12
   Startup error        DIISStart       ....  0.200000
   # of expansion vecs  DIISMaxEq       ....     5
   Bias factor          DIISBfac        ....   1.050
   Max. coefficient     DIISMaxC        ....  10.000
 Newton-Raphson         CNVNR           .... off
 SOSCF                  CNVSOSCF        .... on
   Start iteration      SOSCFMaxIt      ....   150
   Startup grad/error   SOSCFStart      ....  0.003300
 Level Shifting         CNVShift        .... on
   Level shift para.    LevelShift      ....    0.2500
   Turn off err/grad.   ShiftErr        ....    0.0010
 Zerner damping         CNVZerner       .... off
 Static damping         CNVDamp         .... on
   Fraction old density DampFac         ....    0.7000
   Max. Damping (<1)    DampMax         ....    0.9800
   Min. Damping (>=0)   DampMin         ....    0.0000
   Turn off err/grad.   DampErr         ....    0.1000
 Fernandez-Rico         CNVRico         .... off

SCF Procedure:
 Maximum # iterations   MaxIter         ....   125
 SCF integral mode      SCFMode         .... Direct
   Integral package                     .... LIBINT
 Reset frequeny         DirectResetFreq ....    20
 Integral Threshold     Thresh          ....  2.500e-11 Eh
 Primitive CutOff       TCut            ....  2.500e-12 Eh

Convergence Tolerance:
 Convergence Check Mode ConvCheckMode   .... Total+1el-Energy
 Convergence forced     ConvForced      .... 1
 Energy Change          TolE            ....  1.000e-08 Eh
 1-El. energy change                    ....  1.000e-05 Eh
 Orbital Gradient       TolG            ....  1.000e-05
 Orbital Rotation angle TolX            ....  1.000e-05
 DIIS Error             TolErr          ....  5.000e-07


Diagonalization of the overlap matrix:
Smallest eigenvalue                        ... 6.228e-06
Time for diagonalization                   ...    0.424 sec
Threshold for overlap eigenvalues          ... 1.000e-08
Number of eigenvalues below threshold      ... 0
Time for construction of square roots      ...    0.392 sec
Total time needed                          ...    0.828 sec

-------------------
DFT GRID GENERATION
-------------------

General Integration Accuracy     IntAcc      ...  5.010
Radial Grid Type                 RadialGrid  ... Gauss-Chebyshev
Angular Grid (max. acc.)         AngularGrid ... Lebedev-434
Angular grid pruning method      GridPruning ... 3 (G Style)
Weight generation scheme         WeightScheme... Becke
Basis function cutoff            BFCut       ...    1.0000e-11
Integration weight cutoff        WCut        ...    1.0000e-14
Grids for H and He will be reduced by one unit

# of grid points (after initial pruning)     ... 441358 (   0.0 sec)
# of grid points (after weights+screening)   ... 388944 (   1.1 sec)
nearest neighbour list constructed           ...    0.0 sec
Grid point re-assignment to atoms done       ...    0.2 sec
Grid point division into batches done        ...    4.7 sec
Reduced shell lists constructed in    5.5 sec

Total number of grid points                  ...   388944
Total number of batches                      ...     6099
Average number of points per batch           ...       63
Average number of grid points per atom       ...     8455
Average number of shells per batch           ...   130.14 (31.06%)
Average number of basis functions per batch  ...   340.57 (30.60%)
Average number of large shells per batch     ...    89.93 (69.10%)
Average number of large basis fcns per batch ...   233.68 (68.61%)
Maximum spatial batch extension              ...  13.58, 13.45, 23.46 au
Average spatial batch extension              ...   0.06,  0.06,  0.07 au

Time for grid setup =    7.568 sec

------------------------------
INITIAL GUESS: MODEL POTENTIAL
------------------------------
Loading Hartree-Fock densities                     ... done
Calculating cut-offs                               ... done
Setting up the integral package                    ... done
Initializing the effective Hamiltonian             ... done
Starting the Coulomb interaction                   ... done (   0.6 sec)
Reading the grid                                   ... done
Mapping shells                                     ... done
Starting the XC term evaluation                    ... done (   2.0 sec)
  promolecular density results
     # of electrons  =    237.993707888
     EX              =   -222.109669971
     EC              =     -8.237056877
     EX+EC           =   -230.346726849
Transforming the Hamiltonian                       ... done (   0.2 sec)
Diagonalizing the Hamiltonian                      ... done (   0.4 sec)
Back transforming the eigenvectors                 ... done (   0.1 sec)
Now organizing SCF variables                       ... done
                      ------------------
                      INITIAL GUESS DONE (  11.3 sec)
                      ------------------
--------------------
COSX GRID GENERATION
--------------------

General Integration Accuracy     IntAcc      ...  3.340
Radial Grid Type                 RadialGrid  ... Gauss-Chebyshev
Angular Grid (max. acc.)         AngularGrid ... Lebedev-50
Angular grid pruning method      GridPruning ... 3 (G Style)
Weight generation scheme         WeightScheme... Becke
Basis function cutoff            BFCut       ...    1.0000e-11
Integration weight cutoff        WCut        ...    1.0000e-14
Grids for H and He will be reduced by one unit

# of grid points (after initial pruning)     ...  23454 (   0.0 sec)
# of grid points (after weights+screening)   ...  21509 (   0.1 sec)
nearest neighbour list constructed           ...    0.0 sec
Grid point re-assignment to atoms done       ...    0.0 sec
Grid point division into batches done        ...    0.0 sec
Reduced shell lists constructed in    0.1 sec

Total number of grid points                  ...    21509
Total number of batches                      ...      358
Average number of points per batch           ...       60
Average number of grid points per atom       ...      468
Average number of shells per batch           ...   143.56 (34.26%)
Average number of basis functions per batch  ...   380.69 (34.20%)
Average number of large shells per batch     ...   100.94 (70.31%)
Average number of large basis fcns per batch ...   264.56 (69.50%)
Maximum spatial batch extension              ...   9.98,  9.21, 22.24 au
Average spatial batch extension              ...   0.14,  0.16,  0.30 au

Overlap Fitting                  UseSFitting ... on
Constructing numerical overlap ... done (      0.1 sec)
Inverting numerical overlap    ... done (      0.2 sec)
Obtaining analytic overlap     ... done (      0.0 sec)
Final contraction and storage  ... done (      0.5 sec)


General Integration Accuracy     IntAcc      ...  3.670
Radial Grid Type                 RadialGrid  ... Gauss-Chebyshev
Angular Grid (max. acc.)         AngularGrid ... Lebedev-50
Angular grid pruning method      GridPruning ... 3 (G Style)
Weight generation scheme         WeightScheme... Becke
Basis function cutoff            BFCut       ...    1.0000e-11
Integration weight cutoff        WCut        ...    1.0000e-14
Grids for H and He will be reduced by one unit

# of grid points (after initial pruning)     ...  29294 (   0.0 sec)
# of grid points (after weights+screening)   ...  26798 (   0.1 sec)
nearest neighbour list constructed           ...    0.0 sec
Grid point re-assignment to atoms done       ...    0.0 sec
Grid point division into batches done        ...    0.0 sec
Reduced shell lists constructed in    0.1 sec

Total number of grid points                  ...    26798
Total number of batches                      ...      449
Average number of points per batch           ...       59
Average number of grid points per atom       ...      583
Average number of shells per batch           ...   142.90 (34.11%)
Average number of basis functions per batch  ...   379.80 (34.12%)
Average number of large shells per batch     ...   100.85 (70.57%)
Average number of large basis fcns per batch ...   266.05 (70.05%)
Maximum spatial batch extension              ...   9.92, 10.40, 24.85 au
Average spatial batch extension              ...   0.11,  0.15,  0.27 au

Overlap Fitting                  UseSFitting ... on
Constructing numerical overlap ... done (      0.1 sec)
Inverting numerical overlap    ... done (      0.1 sec)
Obtaining analytic overlap     ... done (      0.0 sec)
Final contraction and storage  ... done (      0.5 sec)


General Integration Accuracy     IntAcc      ...  4.010
Radial Grid Type                 RadialGrid  ... Gauss-Chebyshev
Angular Grid (max. acc.)         AngularGrid ... Lebedev-110
Angular grid pruning method      GridPruning ... 3 (G Style)
Weight generation scheme         WeightScheme... Becke
Basis function cutoff            BFCut       ...    1.0000e-11
Integration weight cutoff        WCut        ...    1.0000e-14
Grids for H and He will be reduced by one unit

# of grid points (after initial pruning)     ...  57456 (   0.0 sec)
# of grid points (after weights+screening)   ...  51920 (   0.1 sec)
nearest neighbour list constructed           ...    0.0 sec
Grid point re-assignment to atoms done       ...    0.0 sec
Grid point division into batches done        ...    0.1 sec
Reduced shell lists constructed in    0.2 sec

Total number of grid points                  ...    51920
Total number of batches                      ...      836
Average number of points per batch           ...       62
Average number of grid points per atom       ...     1129
Average number of shells per batch           ...   141.31 (33.72%)
Average number of basis functions per batch  ...   374.64 (33.66%)
Average number of large shells per batch     ...    98.61 (69.79%)
Average number of large basis fcns per batch ...   259.11 (69.16%)
Maximum spatial batch extension              ...   9.23, 11.25, 27.25 au
Average spatial batch extension              ...   0.10,  0.12,  0.18 au

Overlap Fitting                  UseSFitting ... on
Constructing numerical overlap ... done (      0.2 sec)
Inverting numerical overlap    ... done (      0.2 sec)
Obtaining analytic overlap     ... done (      0.0 sec)
Final contraction and storage  ... done (      0.5 sec)

Time for X-Grid setup             =    3.656 sec
--------------
SCF ITERATIONS
--------------
ITER       Energy         Delta-E        Max-DP      RMS-DP      [F,P]     Damp
               ***  Starting incremental Fock matrix formation  ***
  0  -2101.4671866993   0.000000000000 0.05226480  0.00059760  0.1575703 0.7000
  1  -2101.7142456062  -0.247058906963 0.06571091  0.00051781  0.0987019 0.7000
                               ***Turning on DIIS***
  2  -2101.8371394788  -0.122893872572 0.14865468  0.00115306  0.0557376 0.0000
  3  -2102.0396984571  -0.202558978316 0.03726993  0.00033850  0.0351560 0.0000
  4  -2102.0725055428  -0.032807085634 0.01243718  0.00011331  0.0079493 0.0000
  5  -2102.0740175207  -0.001511977908 0.00588804  0.00005015  0.0043923 0.0000
                      *** Initiating the SOSCF procedure ***
                           *** Shutting down DIIS ***
                      *** Re-Reading the Fockian *** 
                      *** Removing any level shift *** 
ITER      Energy       Delta-E        Grad      Rot      Max-DP    RMS-DP
  6  -2102.07441822  -0.0004007017  0.002073  0.002073  0.002323  0.000029
               *** Restarting incremental Fock matrix formation ***
  7  -2102.07458078  -0.0001625541  0.001269  0.003716  0.008714  0.000097
  8  -2102.07464035  -0.0000595690  0.000470  0.003914  0.006424  0.000061
  9  -2102.07465462  -0.0000142740  0.000184  0.000830  0.004768  0.000050
 10  -2102.07466177  -0.0000071543  0.000058  0.000171  0.000755  0.000008
 11  -2102.07466199  -0.0000002191  0.000048  0.000093  0.000578  0.000006
 12  -2102.07466237  -0.0000003740  0.000011  0.000029  0.000259  0.000002
 13  -2102.07466235   0.0000000155  0.000007  0.000014  0.000106  0.000001
 14  -2102.07466238  -0.0000000313  0.000003  0.000010  0.000253  0.000002
                  ***Gradient check signals convergence***
              ***Rediagonalizing the Fockian in SOSCF/NRSCF***

               *****************************************************
               *                     SUCCESS                       *
               *           SCF CONVERGED AFTER  15 CYCLES          *
               *****************************************************

Old exchange energy                            =    -69.595733864 Eh
New exchange energy                            =    -69.596324903 Eh
Exchange energy change after final integration =     -0.000591039 Eh
Total energy after final integration           =  -2102.075253462 Eh
Final COS-X integration done in                =    47.981 sec

----------------
TOTAL SCF ENERGY
----------------

Total Energy       :        -2102.07525346 Eh          -57200.37566 eV

Components:
Nuclear Repulsion  :         3181.47224505 Eh           86572.26104 eV
Electronic Energy  :        -5283.54749851 Eh         -143772.63669 eV
One Electron Energy:        -9198.15594361 Eh         -250294.54795 eV
Two Electron Energy:         3914.60844510 Eh          106521.91126 eV

Virial components:
Potential Energy   :        -4195.61116368 Eh         -114168.38397 eV
Kinetic Energy     :         2093.53591021 Eh           56968.00831 eV
Virial Ratio       :            2.00407891


DFT components:
N(Alpha)           :      119.000002604162 electrons
N(Beta)            :      119.000002604162 electrons
N(Total)           :      238.000005208324 electrons
E(XC)              :     -164.880069152605 Eh       

---------------
SCF CONVERGENCE
---------------

  Last Energy change         ...   -3.9900e-08  Tolerance :   1.0000e-08
  Last MAX-Density change    ...    1.3847e-14  Tolerance :   1.0000e-07
  Last RMS-Density change    ...    9.9739e-17  Tolerance :   5.0000e-09
  Last Orbital Gradient      ...    1.7910e-06  Tolerance :   1.0000e-05
  Last Orbital Rotation      ...    2.7308e-06  Tolerance :   1.0000e-05

             **** THE GBW FILE WAS UPDATED (total.gbw) ****
             **** DENSITY FILE WAS UPDATED (total.scfp.tmp) ****
             **** ENERGY FILE WAS UPDATED (total.en.tmp) ****
----------------
ORBITAL ENERGIES
----------------

  NO   OCC          E(Eh)            E(eV) 
   0   2.0000     -89.003031     -2421.8956 
   1   2.0000     -89.002105     -2421.8704 
   2   2.0000     -14.469576      -393.7372 
   3   2.0000     -14.468047      -393.6956 
   4   2.0000     -14.466148      -393.6439 
   5   2.0000     -14.465327      -393.6215 
   6   2.0000     -14.462672      -393.5493 
   7   2.0000     -14.461868      -393.5274 
   8   2.0000     -14.460409      -393.4877 
   9   2.0000     -10.373982      -282.2904 
  10   2.0000     -10.370764      -282.2028 
  11   2.0000     -10.370304      -282.1903 
  12   2.0000     -10.367044      -282.1016 
  13   2.0000     -10.353431      -281.7312 
  14   2.0000     -10.352932      -281.7176 
  15   2.0000     -10.349356      -281.6203 
  16   2.0000     -10.349114      -281.6137 
  17   2.0000     -10.333363      -281.1851 
  18   2.0000     -10.330398      -281.1044 
  19   2.0000     -10.324924      -280.9555 
  20   2.0000     -10.318848      -280.7901 
  21   2.0000     -10.314712      -280.6776 
  22   2.0000     -10.312263      -280.6110 
  23   2.0000     -10.311644      -280.5941 
  24   2.0000     -10.303445      -280.3710 
  25   2.0000     -10.297846      -280.2186 
  26   2.0000     -10.294569      -280.1295 
  27   2.0000     -10.293020      -280.0873 
  28   2.0000     -10.287743      -279.9437 
  29   2.0000     -10.283468      -279.8274 
  30   2.0000     -10.282528      -279.8018 
  31   2.0000     -10.276240      -279.6307 
  32   2.0000     -10.269817      -279.4559 
  33   2.0000      -8.099303      -220.3932 
  34   2.0000      -8.097235      -220.3370 
  35   2.0000      -6.052362      -164.6931 
  36   2.0000      -6.050517      -164.6429 
  37   2.0000      -6.048468      -164.5872 
  38   2.0000      -6.046413      -164.5313 
  39   2.0000      -6.046238      -164.5265 
  40   2.0000      -6.044345      -164.4750 
  41   2.0000      -1.151554       -31.3354 
  42   2.0000      -1.143741       -31.1228 
  43   2.0000      -1.117438       -30.4070 
  44   2.0000      -1.106731       -30.1157 
  45   2.0000      -1.045609       -28.4525 
  46   2.0000      -1.001865       -27.2621 
  47   2.0000      -0.990108       -26.9422 
  48   2.0000      -0.972373       -26.4596 
  49   2.0000      -0.962524       -26.1916 
  50   2.0000      -0.945527       -25.7291 
  51   2.0000      -0.931604       -25.3502 
  52   2.0000      -0.911242       -24.7962 
  53   2.0000      -0.901250       -24.5243 
  54   2.0000      -0.898179       -24.4407 
  55   2.0000      -0.882744       -24.0207 
  56   2.0000      -0.872865       -23.7519 
  57   2.0000      -0.845538       -23.0082 
  58   2.0000      -0.839940       -22.8559 
  59   2.0000      -0.803806       -21.8727 
  60   2.0000      -0.788726       -21.4623 
  61   2.0000      -0.775930       -21.1141 
  62   2.0000      -0.767475       -20.8840 
  63   2.0000      -0.754979       -20.5440 
  64   2.0000      -0.726839       -19.7783 
  65   2.0000      -0.722220       -19.6526 
  66   2.0000      -0.712542       -19.3893 
  67   2.0000      -0.697148       -18.9704 
  68   2.0000      -0.679666       -18.4946 
  69   2.0000      -0.664553       -18.0834 
  70   2.0000      -0.661250       -17.9935 
  71   2.0000      -0.649021       -17.6608 
  72   2.0000      -0.634309       -17.2604 
  73   2.0000      -0.627809       -17.0835 
  74   2.0000      -0.621760       -16.9189 
  75   2.0000      -0.614825       -16.7302 
  76   2.0000      -0.598166       -16.2769 
  77   2.0000      -0.587175       -15.9778 
  78   2.0000      -0.574780       -15.6406 
  79   2.0000      -0.569785       -15.5046 
  80   2.0000      -0.565073       -15.3764 
  81   2.0000      -0.560837       -15.2611 
  82   2.0000      -0.560061       -15.2400 
  83   2.0000      -0.555244       -15.1090 
  84   2.0000      -0.548829       -14.9344 
  85   2.0000      -0.543890       -14.8000 
  86   2.0000      -0.537526       -14.6268 
  87   2.0000      -0.535376       -14.5683 
  88   2.0000      -0.529298       -14.4029 
  89   2.0000      -0.525798       -14.3077 
  90   2.0000      -0.522679       -14.2228 
  91   2.0000      -0.517147       -14.0723 
  92   2.0000      -0.512453       -13.9446 
  93   2.0000      -0.487398       -13.2628 
  94   2.0000      -0.479921       -13.0593 
  95   2.0000      -0.477717       -12.9993 
  96   2.0000      -0.474884       -12.9223 
  97   2.0000      -0.469464       -12.7748 
  98   2.0000      -0.466919       -12.7055 
  99   2.0000      -0.459891       -12.5143 
 100   2.0000      -0.444802       -12.1037 
 101   2.0000      -0.443233       -12.0610 
 102   2.0000      -0.438250       -11.9254 
 103   2.0000      -0.433418       -11.7939 
 104   2.0000      -0.418225       -11.3805 
 105   2.0000      -0.412554       -11.2262 
 106   2.0000      -0.394792       -10.7428 
 107   2.0000      -0.394092       -10.7238 
 108   2.0000      -0.386692       -10.5224 
 109   2.0000      -0.382312       -10.4032 
 110   2.0000      -0.373953       -10.1758 
 111   2.0000      -0.369069       -10.0429 
 112   2.0000      -0.363371        -9.8878 
 113   2.0000      -0.362152        -9.8547 
 114   2.0000      -0.358332        -9.7507 
 115   2.0000      -0.340678        -9.2703 
 116   2.0000      -0.315784        -8.5929 
 117   2.0000      -0.298839        -8.1318 
 118   2.0000      -0.288733        -7.8568 
 119   0.0000      -0.045362        -1.2344 
 120   0.0000      -0.017634        -0.4799 
 121   0.0000       0.013508         0.3676 
 122   0.0000       0.022390         0.6093 
 123   0.0000       0.036896         1.0040 
 124   0.0000       0.053115         1.4453 
 125   0.0000       0.074074         2.0157 
 126   0.0000       0.084166         2.2903 
 127   0.0000       0.096024         2.6129 
 128   0.0000       0.098815         2.6889 
 129   0.0000       0.101859         2.7717 
 130   0.0000       0.109901         2.9906 
 131   0.0000       0.114068         3.1040 
 132   0.0000       0.126075         3.4307 
 133   0.0000       0.128406         3.4941 
 134   0.0000       0.133660         3.6371 
 135   0.0000       0.136756         3.7213 
 136   0.0000       0.142127         3.8675 
 137   0.0000       0.145277         3.9532 
 138   0.0000       0.147633         4.0173 
 139   0.0000       0.148222         4.0333 
 140   0.0000       0.155115         4.2209 
 141   0.0000       0.164514         4.4766 
 142   0.0000       0.167043         4.5455 
 143   0.0000       0.169172         4.6034 
 144   0.0000       0.172895         4.7047 
 145   0.0000       0.176039         4.7903 
 146   0.0000       0.185976         5.0607 
 147   0.0000       0.191220         5.2034 
 148   0.0000       0.192735         5.2446 
 149   0.0000       0.199662         5.4331 
 150   0.0000       0.206336         5.6147 
 151   0.0000       0.214996         5.8503 
 152   0.0000       0.219356         5.9690 
 153   0.0000       0.223232         6.0744 
 154   0.0000       0.228670         6.2224 
 155   0.0000       0.236702         6.4410 
 156   0.0000       0.239015         6.5039 
 157   0.0000       0.248395         6.7592 
 158   0.0000       0.249569         6.7911 
 159   0.0000       0.253582         6.9003 
 160   0.0000       0.255705         6.9581 
 161   0.0000       0.260033         7.0759 
 162   0.0000       0.260875         7.0988 
 163   0.0000       0.263220         7.1626 
 164   0.0000       0.265631         7.2282 
 165   0.0000       0.269923         7.3450 
 166   0.0000       0.274491         7.4693 
 167   0.0000       0.278016         7.5652 
 168   0.0000       0.279349         7.6015 
 169   0.0000       0.286126         7.7859 
 170   0.0000       0.288344         7.8462 
 171   0.0000       0.289693         7.8829 
 172   0.0000       0.293881         7.9969 
 173   0.0000       0.295053         8.0288 
 174   0.0000       0.296470         8.0674 
 175   0.0000       0.298574         8.1246 
 176   0.0000       0.300254         8.1703 
 177   0.0000       0.304403         8.2832 
 178   0.0000       0.306184         8.3317 
 179   0.0000       0.307710         8.3732 
 180   0.0000       0.310413         8.4468 
 181   0.0000       0.316295         8.6068 
 182   0.0000       0.318768         8.6741 
 183   0.0000       0.330714         8.9992 
 184   0.0000       0.333350         9.0709 
 185   0.0000       0.337413         9.1815 
 186   0.0000       0.339015         9.2251 
 187   0.0000       0.342945         9.3320 
 188   0.0000       0.343812         9.3556 
 189   0.0000       0.344984         9.3875 
 190   0.0000       0.346418         9.4265 
 191   0.0000       0.350363         9.5339 
 192   0.0000       0.352662         9.5964 
 193   0.0000       0.354048         9.6341 
 194   0.0000       0.367463         9.9992 
 195   0.0000       0.369379        10.0513 
 196   0.0000       0.371769        10.1164 
 197   0.0000       0.375212        10.2100 
 198   0.0000       0.379192        10.3183 
 199   0.0000       0.380540        10.3550 
 200   0.0000       0.382776        10.4159 
 201   0.0000       0.387004        10.5309 
 202   0.0000       0.387648        10.5484 
 203   0.0000       0.390791        10.6340 
 204   0.0000       0.393768        10.7150 
 205   0.0000       0.396487        10.7889 
 206   0.0000       0.397010        10.8032 
 207   0.0000       0.400991        10.9115 
 208   0.0000       0.405600        11.0369 
 209   0.0000       0.412562        11.2264 
 210   0.0000       0.413793        11.2599 
 211   0.0000       0.415065        11.2945 
 212   0.0000       0.418370        11.3844 
 213   0.0000       0.420250        11.4356 
 214   0.0000       0.425424        11.5764 
 215   0.0000       0.429191        11.6789 
 216   0.0000       0.436448        11.8764 
 217   0.0000       0.437835        11.9141 
 218   0.0000       0.440528        11.9874 
 219   0.0000       0.444450        12.0941 
 220   0.0000       0.447115        12.1666 
 221   0.0000       0.451394        12.2830 
 222   0.0000       0.454784        12.3753 
 223   0.0000       0.458341        12.4721 
 224   0.0000       0.459141        12.4939 
 225   0.0000       0.460090        12.5197 
 226   0.0000       0.463081        12.6011 
 227   0.0000       0.470393        12.8001 
 228   0.0000       0.471912        12.8414 
 229   0.0000       0.474909        12.9229 
 230   0.0000       0.477657        12.9977 
 231   0.0000       0.479072        13.0362 
 232   0.0000       0.481142        13.0925 
 233   0.0000       0.484687        13.1890 
 234   0.0000       0.491500        13.3744 
 235   0.0000       0.493444        13.4273 
 236   0.0000       0.496934        13.5223 
 237   0.0000       0.499784        13.5998 
 238   0.0000       0.500471        13.6185 
 239   0.0000       0.504943        13.7402 
 240   0.0000       0.506677        13.7874 
 241   0.0000       0.508727        13.8432 
 242   0.0000       0.511276        13.9125 
 243   0.0000       0.512599        13.9485 
 244   0.0000       0.516031        14.0419 
 245   0.0000       0.519744        14.1430 
 246   0.0000       0.524407        14.2699 
 247   0.0000       0.530855        14.4453 
 248   0.0000       0.535036        14.5591 
 249   0.0000       0.536190        14.5905 
 250   0.0000       0.539034        14.6679 
 251   0.0000       0.542414        14.7598 
 252   0.0000       0.546629        14.8745 
 253   0.0000       0.548016        14.9123 
 254   0.0000       0.551802        15.0153 
 255   0.0000       0.555176        15.1071 
 256   0.0000       0.559025        15.2118 
 257   0.0000       0.563331        15.3290 
 258   0.0000       0.564999        15.3744 
 259   0.0000       0.569630        15.5004 
 260   0.0000       0.573415        15.6034 
 261   0.0000       0.582162        15.8414 
 262   0.0000       0.583704        15.8834 
 263   0.0000       0.585706        15.9379 
 264   0.0000       0.591171        16.0866 
 265   0.0000       0.594563        16.1789 
 266   0.0000       0.597322        16.2540 
 267   0.0000       0.600441        16.3388 
 268   0.0000       0.607096        16.5199 
 269   0.0000       0.608899        16.5690 
 270   0.0000       0.619750        16.8643 
 271   0.0000       0.627027        17.0623 
 272   0.0000       0.629694        17.1348 
 273   0.0000       0.636398        17.3173 
 274   0.0000       0.640263        17.4224 
 275   0.0000       0.641178        17.4473 
 276   0.0000       0.646782        17.5998 
 277   0.0000       0.647938        17.6313 
 278   0.0000       0.650243        17.6940 
 279   0.0000       0.658426        17.9167 
 280   0.0000       0.659695        17.9512 
 281   0.0000       0.666813        18.1449 
 282   0.0000       0.673644        18.3308 
 283   0.0000       0.677408        18.4332 
 284   0.0000       0.678779        18.4705 
 285   0.0000       0.680738        18.5238 
 286   0.0000       0.681361        18.5408 
 287   0.0000       0.684972        18.6390 
 288   0.0000       0.688412        18.7327 
 289   0.0000       0.689839        18.7715 
 290   0.0000       0.693221        18.8635 
 291   0.0000       0.694097        18.8873 
 292   0.0000       0.701787        19.0966 
 293   0.0000       0.704471        19.1696 
 294   0.0000       0.706059        19.2128 
 295   0.0000       0.709902        19.3174 
 296   0.0000       0.714029        19.4297 
 297   0.0000       0.725116        19.7314 
 298   0.0000       0.727779        19.8039 
 299   0.0000       0.732012        19.9191 
 300   0.0000       0.736074        20.0296 
 301   0.0000       0.740429        20.1481 
 302   0.0000       0.745323        20.2813 
 303   0.0000       0.748634        20.3714 
 304   0.0000       0.751353        20.4454 
 305   0.0000       0.753376        20.5004 
 306   0.0000       0.755435        20.5564 
 307   0.0000       0.757945        20.6247 
 308   0.0000       0.765024        20.8173 
 309   0.0000       0.766920        20.8690 
 310   0.0000       0.770876        20.9766 
 311   0.0000       0.775488        21.1021 
 312   0.0000       0.778267        21.1777 
 313   0.0000       0.783410        21.3177 
 314   0.0000       0.786840        21.4110 
 315   0.0000       0.789909        21.4945 
 316   0.0000       0.791870        21.5479 
 317   0.0000       0.793332        21.5877 
 318   0.0000       0.796734        21.6802 
 319   0.0000       0.802657        21.8414 
 320   0.0000       0.804835        21.9007 
 321   0.0000       0.811277        22.0760 
 322   0.0000       0.816878        22.2284 
 323   0.0000       0.821044        22.3417 
 324   0.0000       0.823912        22.4198 
 325   0.0000       0.828380        22.5414 
 326   0.0000       0.833558        22.6823 
 327   0.0000       0.836708        22.7680 
 328   0.0000       0.844298        22.9745 
 329   0.0000       0.847357        23.0577 
 330   0.0000       0.849551        23.1175 
 331   0.0000       0.852740        23.2042 
 332   0.0000       0.856113        23.2960 
 333   0.0000       0.861560        23.4442 
 334   0.0000       0.867949        23.6181 
 335   0.0000       0.872819        23.7506 
 336   0.0000       0.874257        23.7897 
 337   0.0000       0.878305        23.8999 
 338   0.0000       0.886133        24.1129 
 339   0.0000       0.888240        24.1702 
 340   0.0000       0.893412        24.3110 
 341   0.0000       0.899136        24.4667 
 342   0.0000       0.904824        24.6215 
 343   0.0000       0.907551        24.6957 
 344   0.0000       0.913201        24.8494 
 345   0.0000       0.918010        24.9803 
 346   0.0000       0.926779        25.2189 
 347   0.0000       0.931153        25.3380 
 348   0.0000       0.932468        25.3737 
 349   0.0000       0.935011        25.4429 
 350   0.0000       0.941049        25.6072 
 351   0.0000       0.945002        25.7148 
 352   0.0000       0.948388        25.8069 
 353   0.0000       0.952146        25.9092 
 354   0.0000       0.957953        26.0672 
 355   0.0000       0.961568        26.1656 
 356   0.0000       0.963130        26.2081 
 357   0.0000       0.968879        26.3645 
 358   0.0000       0.972741        26.4696 
 359   0.0000       0.979561        26.6552 
 360   0.0000       0.982841        26.7445 
 361   0.0000       0.990624        26.9562 
 362   0.0000       0.994867        27.0717 
 363   0.0000       0.999870        27.2079 
 364   0.0000       1.009214        27.4621 
 365   0.0000       1.011935        27.5362 
 366   0.0000       1.017465        27.6866 
 367   0.0000       1.026655        27.9367 
 368   0.0000       1.030491        28.0411 
 369   0.0000       1.038064        28.2472 
 370   0.0000       1.043884        28.4055 
 371   0.0000       1.047609        28.5069 
 372   0.0000       1.057209        28.7681 
 373   0.0000       1.061462        28.8839 
 374   0.0000       1.065615        28.9968 
 375   0.0000       1.074712        29.2444 
 376   0.0000       1.084600        29.5135 
 377   0.0000       1.089655        29.6510 
 378   0.0000       1.096862        29.8471 
 379   0.0000       1.103436        30.0260 
 380   0.0000       1.106299        30.1039 
 381   0.0000       1.117988        30.4220 
 382   0.0000       1.122470        30.5440 
 383   0.0000       1.122870        30.5548 
 384   0.0000       1.135919        30.9099 
 385   0.0000       1.141819        31.0705 
 386   0.0000       1.147252        31.2183 
 387   0.0000       1.147339        31.2207 
 388   0.0000       1.160851        31.5884 
 389   0.0000       1.164457        31.6865 
 390   0.0000       1.170386        31.8478 
 391   0.0000       1.180010        32.1097 
 392   0.0000       1.183470        32.2038 
 393   0.0000       1.189436        32.3662 
 394   0.0000       1.194029        32.4912 
 395   0.0000       1.204761        32.7832 
 396   0.0000       1.214382        33.0450 
 397   0.0000       1.224475        33.3197 
 398   0.0000       1.228885        33.4397 
 399   0.0000       1.236204        33.6388 
 400   0.0000       1.247316        33.9412 
 401   0.0000       1.253510        34.1097 
 402   0.0000       1.259174        34.2639 
 403   0.0000       1.260380        34.2967 
 404   0.0000       1.269545        34.5461 
 405   0.0000       1.271285        34.5934 
 406   0.0000       1.273105        34.6429 
 407   0.0000       1.278560        34.7914 
 408   0.0000       1.287551        35.0360 
 409   0.0000       1.291466        35.1426 
 410   0.0000       1.292008        35.1573 
 411   0.0000       1.307191        35.5705 
 412   0.0000       1.313502        35.7422 
 413   0.0000       1.314686        35.7744 
 414   0.0000       1.318825        35.8870 
 415   0.0000       1.323778        36.0218 
 416   0.0000       1.331449        36.2306 
 417   0.0000       1.337547        36.3965 
 418   0.0000       1.343760        36.5656 
 419   0.0000       1.346147        36.6305 
 420   0.0000       1.352484        36.8030 
 421   0.0000       1.354355        36.8539 
 422   0.0000       1.366098        37.1734 
 423   0.0000       1.370540        37.2943 
 424   0.0000       1.377461        37.4826 
 425   0.0000       1.384303        37.6688 
 426   0.0000       1.389136        37.8003 
 427   0.0000       1.393989        37.9324 
 428   0.0000       1.396475        38.0000 
 429   0.0000       1.403318        38.1862 
 430   0.0000       1.408927        38.3388 
 431   0.0000       1.417395        38.5693 
 432   0.0000       1.423310        38.7302 
 433   0.0000       1.426966        38.8297 
 434   0.0000       1.434124        39.0245 
 435   0.0000       1.438277        39.1375 
 436   0.0000       1.445234        39.3268 
 437   0.0000       1.454616        39.5821 
 438   0.0000       1.464246        39.8442 
 439   0.0000       1.467088        39.9215 
 440   0.0000       1.469777        39.9947 
 441   0.0000       1.482103        40.3301 
 442   0.0000       1.486860        40.4595 
 443   0.0000       1.491030        40.5730 
 444   0.0000       1.495665        40.6991 
 445   0.0000       1.499307        40.7982 
 446   0.0000       1.500263        40.8242 
 447   0.0000       1.502376        40.8817 
 448   0.0000       1.510090        41.0916 
 449   0.0000       1.511471        41.1292 
 450   0.0000       1.515748        41.2456 
 451   0.0000       1.520713        41.3807 
 452   0.0000       1.525252        41.5042 
 453   0.0000       1.529024        41.6069 
 454   0.0000       1.539757        41.8989 
 455   0.0000       1.546552        42.0838 
 456   0.0000       1.551188        42.2100 
 457   0.0000       1.552910        42.2568 
 458   0.0000       1.558302        42.4035 
 459   0.0000       1.565609        42.6024 
 460   0.0000       1.568489        42.6808 
 461   0.0000       1.570531        42.7363 
 462   0.0000       1.573903        42.8281 
 463   0.0000       1.580190        42.9992 
 464   0.0000       1.583278        43.0832 
 465   0.0000       1.591442        43.3053 
 466   0.0000       1.602582        43.6085 
 467   0.0000       1.607210        43.7344 
 468   0.0000       1.610419        43.8217 
 469   0.0000       1.611507        43.8513 
 470   0.0000       1.616626        43.9906 
 471   0.0000       1.618460        44.0405 
 472   0.0000       1.621791        44.1312 
 473   0.0000       1.629585        44.3433 
 474   0.0000       1.631258        44.3888 
 475   0.0000       1.638455        44.5846 
 476   0.0000       1.639518        44.6135 
 477   0.0000       1.639940        44.6250 
 478   0.0000       1.646379        44.8002 
 479   0.0000       1.650167        44.9033 
 480   0.0000       1.653892        45.0047 
 481   0.0000       1.657165        45.0938 
 482   0.0000       1.669575        45.4314 
 483   0.0000       1.672139        45.5012 
 484   0.0000       1.674882        45.5759 
 485   0.0000       1.676125        45.6097 
 486   0.0000       1.687115        45.9087 
 487   0.0000       1.687719        45.9252 
 488   0.0000       1.690868        46.0109 
 489   0.0000       1.694455        46.1085 
 490   0.0000       1.698604        46.2214 
 491   0.0000       1.700646        46.2769 
 492   0.0000       1.703647        46.3586 
 493   0.0000       1.711308        46.5671 
 494   0.0000       1.715770        46.6885 
 495   0.0000       1.720313        46.8121 
 496   0.0000       1.726411        46.9780 
 497   0.0000       1.730634        47.0930 
 498   0.0000       1.735134        47.2154 
 499   0.0000       1.741744        47.3953 
 500   0.0000       1.747099        47.5410 
 501   0.0000       1.751075        47.6492 
 502   0.0000       1.752441        47.6863 
 503   0.0000       1.759471        47.8776 
 504   0.0000       1.761573        47.9349 
 505   0.0000       1.774099        48.2757 
 506   0.0000       1.777734        48.3746 
 507   0.0000       1.781036        48.4645 
 508   0.0000       1.784770        48.5661 
 509   0.0000       1.789147        48.6852 
 510   0.0000       1.792835        48.7855 
 511   0.0000       1.797267        48.9061 
 512   0.0000       1.803707        49.0814 
 513   0.0000       1.807726        49.1907 
 514   0.0000       1.809163        49.2298 
 515   0.0000       1.813364        49.3441 
 516   0.0000       1.820034        49.5256 
 517   0.0000       1.824280        49.6412 
 518   0.0000       1.826550        49.7029 
 519   0.0000       1.834781        49.9269 
 520   0.0000       1.838432        50.0263 
 521   0.0000       1.844927        50.2030 
 522   0.0000       1.848118        50.2899 
 523   0.0000       1.853777        50.4438 
 524   0.0000       1.856810        50.5264 
 525   0.0000       1.861343        50.6497 
 526   0.0000       1.865588        50.7652 
 527   0.0000       1.869396        50.8688 
 528   0.0000       1.877686        51.0944 
 529   0.0000       1.887415        51.3592 
 530   0.0000       1.892465        51.4966 
 531   0.0000       1.896853        51.6160 
 532   0.0000       1.902665        51.7742 
 533   0.0000       1.912851        52.0513 
 534   0.0000       1.914430        52.0943 
 535   0.0000       1.921711        52.2924 
 536   0.0000       1.928193        52.4688 
 537   0.0000       1.929741        52.5109 
 538   0.0000       1.940269        52.7974 
 539   0.0000       1.948194        53.0131 
 540   0.0000       1.952897        53.1410 
 541   0.0000       1.954585        53.1869 
 542   0.0000       1.963312        53.4244 
 543   0.0000       1.970117        53.6096 
 544   0.0000       1.978501        53.8378 
 545   0.0000       1.983281        53.9678 
 546   0.0000       1.990312        54.1592 
 547   0.0000       1.992860        54.2285 
 548   0.0000       2.007649        54.6309 
 549   0.0000       2.016339        54.8674 
 550   0.0000       2.021449        55.0064 
 551   0.0000       2.027215        55.1633 
 552   0.0000       2.031930        55.2916 
 553   0.0000       2.035038        55.3762 
 554   0.0000       2.036790        55.4239 
 555   0.0000       2.043179        55.5977 
 556   0.0000       2.051499        55.8241 
 557   0.0000       2.066522        56.2329 
 558   0.0000       2.072922        56.4071 
 559   0.0000       2.080171        56.6043 
 560   0.0000       2.081053        56.6283 
 561   0.0000       2.092830        56.9488 
 562   0.0000       2.099791        57.1382 
 563   0.0000       2.100901        57.1684 
 564   0.0000       2.107503        57.3481 
 565   0.0000       2.117534        57.6210 
 566   0.0000       2.124718        57.8165 
 567   0.0000       2.131838        58.0103 
 568   0.0000       2.133172        58.0466 
 569   0.0000       2.138507        58.1917 
 570   0.0000       2.144787        58.3626 
 571   0.0000       2.155400        58.6514 
 572   0.0000       2.159327        58.7583 
 573   0.0000       2.165145        58.9166 
 574   0.0000       2.178657        59.2843 
 575   0.0000       2.180302        59.3290 
 576   0.0000       2.185491        59.4702 
 577   0.0000       2.187508        59.5251 
 578   0.0000       2.196031        59.7570 
 579   0.0000       2.197250        59.7902 
 580   0.0000       2.199478        59.8508 
 581   0.0000       2.211736        60.1844 
 582   0.0000       2.213530        60.2332 
 583   0.0000       2.218209        60.3605 
 584   0.0000       2.225591        60.5614 
 585   0.0000       2.236263        60.8518 
 586   0.0000       2.237936        60.8973 
 587   0.0000       2.247843        61.1669 
 588   0.0000       2.253857        61.3306 
 589   0.0000       2.259400        61.4814 
 590   0.0000       2.271704        61.8162 
 591   0.0000       2.276691        61.9519 
 592   0.0000       2.287893        62.2567 
 593   0.0000       2.289745        62.3071 
 594   0.0000       2.300027        62.5869 
 595   0.0000       2.306913        62.7743 
 596   0.0000       2.311915        62.9104 
 597   0.0000       2.312118        62.9159 
 598   0.0000       2.321179        63.1625 
 599   0.0000       2.329030        63.3761 
 600   0.0000       2.330272        63.4099 
 601   0.0000       2.338510        63.6341 
 602   0.0000       2.345820        63.8330 
 603   0.0000       2.349586        63.9355 
 604   0.0000       2.361210        64.2518 
 605   0.0000       2.363014        64.3009 
 606   0.0000       2.366562        64.3974 
 607   0.0000       2.369525        64.4780 
 608   0.0000       2.373489        64.5859 
 609   0.0000       2.377708        64.7007 
 610   0.0000       2.401821        65.3569 
 611   0.0000       2.411713        65.6260 
 612   0.0000       2.424923        65.9855 
 613   0.0000       2.431894        66.1752 
 614   0.0000       2.436051        66.2883 
 615   0.0000       2.437300        66.3223 
 616   0.0000       2.452776        66.7434 
 617   0.0000       2.459111        66.9158 
 618   0.0000       2.461248        66.9740 
 619   0.0000       2.472320        67.2752 
 620   0.0000       2.485837        67.6431 
 621   0.0000       2.501065        68.0574 
 622   0.0000       2.505661        68.1825 
 623   0.0000       2.516227        68.4700 
 624   0.0000       2.523093        68.6569 
 625   0.0000       2.527472        68.7760 
 626   0.0000       2.532365        68.9092 
 627   0.0000       2.539763        69.1105 
 628   0.0000       2.548650        69.3523 
 629   0.0000       2.558713        69.6261 
 630   0.0000       2.575103        70.0721 
 631   0.0000       2.579555        70.1933 
 632   0.0000       2.581976        70.2591 
 633   0.0000       2.587690        70.4146 
 634   0.0000       2.593928        70.5844 
 635   0.0000       2.601808        70.7988 
 636   0.0000       2.604049        70.8598 
 637   0.0000       2.621611        71.3377 
 638   0.0000       2.633894        71.6719 
 639   0.0000       2.644661        71.9649 
 640   0.0000       2.648641        72.0732 
 641   0.0000       2.658866        72.3514 
 642   0.0000       2.661386        72.4200 
 643   0.0000       2.666058        72.5471 
 644   0.0000       2.675513        72.8044 
 645   0.0000       2.684462        73.0479 
 646   0.0000       2.686154        73.0940 
 647   0.0000       2.692082        73.2553 
 648   0.0000       2.695551        73.3497 
 649   0.0000       2.696285        73.3696 
 650   0.0000       2.703929        73.5777 
 651   0.0000       2.705770        73.6278 
 652   0.0000       2.720019        74.0155 
 653   0.0000       2.722968        74.0957 
 654   0.0000       2.729011        74.2602 
 655   0.0000       2.735706        74.4424 
 656   0.0000       2.741134        74.5900 
 657   0.0000       2.743839        74.6637 
 658   0.0000       2.751540        74.8732 
 659   0.0000       2.754064        74.9419 
 660   0.0000       2.757315        75.0304 
 661   0.0000       2.764060        75.2139 
 662   0.0000       2.770996        75.4026 
 663   0.0000       2.772532        75.4444 
 664   0.0000       2.778924        75.6184 
 665   0.0000       2.783451        75.7416 
 666   0.0000       2.788354        75.8750 
 667   0.0000       2.790456        75.9322 
 668   0.0000       2.794683        76.0472 
 669   0.0000       2.802966        76.2726 
 670   0.0000       2.808839        76.4324 
 671   0.0000       2.816399        76.6381 
 672   0.0000       2.821015        76.7637 
 673   0.0000       2.827698        76.9456 
 674   0.0000       2.829342        76.9903 
 675   0.0000       2.834393        77.1278 
 676   0.0000       2.844774        77.4102 
 677   0.0000       2.846371        77.4537 
 678   0.0000       2.848901        77.5225 
 679   0.0000       2.854764        77.6821 
 680   0.0000       2.868587        78.0582 
 681   0.0000       2.875754        78.2532 
 682   0.0000       2.876530        78.2744 
 683   0.0000       2.877783        78.3085 
 684   0.0000       2.880435        78.3806 
 685   0.0000       2.885198        78.5102 
 686   0.0000       2.889368        78.6237 
 687   0.0000       2.893129        78.7261 
 688   0.0000       2.895606        78.7934 
 689   0.0000       2.900149        78.9171 
 690   0.0000       2.906585        79.0922 
 691   0.0000       2.909365        79.1678 
 692   0.0000       2.912716        79.2590 
 693   0.0000       2.917458        79.3881 
 694   0.0000       2.928093        79.6775 
 695   0.0000       2.933888        79.8351 
 696   0.0000       2.936988        79.9195 
 697   0.0000       2.945654        80.1553 
 698   0.0000       2.948044        80.2203 
 699   0.0000       2.955755        80.4302 
 700   0.0000       2.958032        80.4921 
 701   0.0000       2.965894        80.7061 
 702   0.0000       2.969551        80.8056 
 703   0.0000       2.971263        80.8522 
 704   0.0000       2.986352        81.2628 
 705   0.0000       2.994228        81.4771 
 706   0.0000       2.998580        81.5955 
 707   0.0000       2.999477        81.6199 
 708   0.0000       3.013153        81.9921 
 709   0.0000       3.014951        82.0410 
[...]
 142   8.677     142.9   0.019357   0.016650   9.890084   8.344031     0.03 (  70->  80)    0.03 (  63->  80)    0.03 (  66->  80)
 143   8.693     142.6   0.097129   0.088321  15.039080  15.378920     0.05 (  71->  86)    0.05 (  70->  86)    0.05 (  64->  81)
 144   8.707     142.4   0.181192   0.166688  -32.949228  -31.607235     0.05 (  70->  86)    0.04 (  65->  77)    0.04 (  67->  77)
 145   8.718     142.2   0.004220   0.003959  -2.513781  -2.219384     0.06 (  72-> 101)    0.04 (  58->  81)    0.03 (  72->  93)
 146   8.740     141.9   0.099900   0.092547  -37.570870  -37.032446     0.06 (  66->  83)    0.05 (  50->  77)    0.03 (  69->  95)
 147   8.748     141.7   0.002241   0.002122   5.046568   4.599628     0.40 (  50->  77)    0.04 (  51->  77)    0.03 (  69->  94)
 148   8.757     141.6   0.010169   0.007848  26.015050  22.236693     0.09 (  68->  90)    0.09 (  68->  95)    0.08 (  67->  90)
 149   8.764     141.5   0.017831   0.016769  -2.022309  -1.172582     0.05 (  72-> 101)    0.03 (  50->  77)    0.03 (  67->  77)
 150   8.773     141.3   0.037305   0.033817  80.227182  76.601782     0.14 (  50->  77)    0.05 (  67->  83)    0.03 (  69->  94)
 151   8.784     141.2   0.048719   0.045687   8.179273   7.035308     0.04 (  72-> 101)    0.04 (  63->  80)    0.03 (  67->  77)
 152   8.800     140.9   0.027561   0.024096  -41.987073  -40.100056     0.07 (  69->  94)    0.04 (  55->  79)    0.03 (  61->  78)
 153   8.809     140.7   0.006320   0.005863  13.697873  13.405479     0.06 (  73-> 106)    0.04 (  68->  87)    0.03 (  68->  88)
 154   8.832     140.4   0.101007   0.091690   7.235125   7.091784     0.06 (  54->  76)    0.04 (  54->  75)    0.04 (  68->  76)
 155   8.848     140.1   0.067145   0.062466   7.342177   8.694253     0.04 (  67->  95)    0.03 (  54->  75)    0.03 (  54->  77)
 156   8.867     139.8   0.014807   0.014857  32.178038  32.462674     0.04 (  64->  85)    0.03 (  68->  76)    0.03 (  68->  78)
 157   8.876     139.7   0.022581   0.018575  -1.921396  -1.386282     0.07 (  63->  80)    0.04 (  65->  77)    0.03 (  67->  78)
 158   8.884     139.6   0.036393   0.035884  -33.031331  -33.735746     0.03 (  73->  83)    0.03 (  68->  87)    0.03 (  72-> 101)
 159   8.895     139.4   0.012031   0.012289  -15.037755  -15.148770     0.04 (  63->  80)    0.03 (  71->  92)    0.03 (  71->  90)
 160   8.903     139.3   0.019869   0.017982  -25.875051  -24.789894     0.03 (  64->  85)    0.02 (  65->  77)    0.02 (  67->  78)
 161   8.913     139.1   0.016473   0.014693  13.360932  13.351589     0.05 (  64->  85)    0.04 (  71->  99)    0.03 (  67->  87)
 162   8.918     139.0   0.009603   0.008173  19.639488  16.674156     0.06 (  72->  83)    0.06 (  72->  82)    0.03 (  65->  78)
 163   8.927     138.9   0.002620   0.002441   3.921709   3.881316     0.09 (  69->  98)    0.06 (  69->  96)    0.03 (  65->  96)
 164   8.947     138.6   0.005684   0.005075  -3.973389  -3.228548     0.05 (  63->  80)    0.03 (  64->  80)    0.03 (  59->  80)
 165   8.959     138.4   0.003537   0.002690   9.651166   8.170114     0.04 (  62->  76)    0.03 (  60->  76)    0.02 (  65->  94)
 166   8.983     138.0   0.014093   0.012311  -24.184443  -20.711659     0.07 (  72-> 102)    0.04 (  72-> 103)    0.04 (  71->  92)
 167   8.991     137.9   0.024998   0.021140  15.989386  13.627992     0.10 (  59->  76)    0.05 (  56->  74)    0.03 (  56->  78)
 168   9.001     137.7   0.017413   0.015626  -4.453470  -3.993590     0.05 (  68->  78)    0.05 (  69->  96)    0.03 (  49->  77)
 169   9.016     137.5   0.009472   0.008649   0.601426   0.491803     0.04 (  46->  75)    0.03 (  60->  76)    0.02 (  42->  75)
 170   9.020     137.4   0.017247   0.014113  -9.352862  -8.418782     0.05 (  73->  84)    0.03 (  66->  83)    0.02 (  61->  78)
 171   9.025     137.4   0.003820   0.003021   1.245482   0.245190     0.04 (  72-> 101)    0.04 (  71->  99)    0.03 (  72-> 104)
 172   9.034     137.2   0.005568   0.004243   2.492599   2.134509     0.04 (  73->  84)    0.04 (  72->  84)    0.02 (  61->  76)
 173   9.046     137.1   0.003924   0.003705   1.789621   1.764944     0.25 (  68->  92)    0.11 (  67->  92)    0.07 (  68->  83)
 174   9.058     136.9   0.007840   0.006952  -1.231766  -1.107359     0.07 (  57->  75)    0.07 (  48->  77)    0.06 (  37->  74)
 175   9.065     136.8   0.003456   0.003724   3.039267   2.848955     0.04 (  69->  87)    0.04 (  67->  87)    0.03 (  66->  93)
 176   9.075     136.6   0.032491   0.029740  28.715725  27.223399     0.04 (  47->  75)    0.03 (  72->  84)    0.03 (  69->  94)
 177   9.078     136.6   0.035160   0.030655  -9.123475  -8.981313     0.03 (  38->  74)    0.03 (  48->  76)    0.03 (  48->  78)
 178   9.095     136.3   0.001356   0.001273   2.746316   2.554294     0.06 (  72->  84)    0.04 (  72-> 104)    0.03 (  72-> 102)
 179   9.121     135.9   0.023521   0.020694  -13.178059  -12.325144     0.04 (  56->  74)    0.03 (  56->  76)    0.02 (  59->  78)
 180   9.129     135.8   0.001351   0.001284  -1.403847  -1.464340     0.03 (  73-> 104)    0.02 (  49->  77)    0.02 (  71->  92)
 181   9.142     135.6   0.050453   0.049519  33.537716  33.334652     0.05 (  49->  77)    0.04 (  71->  94)    0.03 (  69->  96)
 182   9.154     135.4   0.067085   0.060400  -73.484271  -70.433293     0.04 (  49->  76)    0.03 (  56->  74)    0.02 (  71-> 101)
 183   9.156     135.4   0.004424   0.004255   4.598373   4.967643     0.06 (  49->  77)    0.03 (  66->  77)    0.02 (  73-> 106)
 184   9.178     135.1   0.023809   0.023263  13.518553  13.378611     0.09 (  53->  79)    0.06 (  55->  81)    0.04 (  55->  82)
 185   9.192     134.9   0.008548   0.008272  -8.429843  -8.020676     0.04 (  60->  76)    0.03 (  55->  81)    0.02 (  60->  80)
 186   9.197     134.8   0.010012   0.008464   2.967465   2.526261     0.04 (  71->  81)    0.04 (  59->  76)    0.03 (  66->  78)
 187   9.210     134.6   0.003570   0.002848   3.624041   3.568593     0.04 (  68->  82)    0.03 (  64->  82)    0.03 (  49->  77)
 188   9.217     134.5   0.002050   0.001976  -6.727885  -6.644921     0.17 (  68->  90)    0.08 (  67->  90)    0.08 (  68->  83)
 189   9.220     134.5   0.003533   0.002823  -1.790736  -1.246496     0.06 (  58->  74)    0.04 (  58->  75)    0.03 (  68->  90)
 190   9.227     134.4   0.005746   0.005062   6.576030   6.257141     0.07 (  58->  74)    0.04 (  58->  79)    0.03 (  63->  84)
 191   9.246     134.1   0.001081   0.000988  -7.895469  -7.161910     0.40 (  48->  77)    0.05 (  57->  75)    0.04 (  37->  74)
 192   9.248     134.1   0.011926   0.010403  -23.087943  -21.487725     0.06 (  72->  84)    0.05 (  72-> 104)    0.05 (  72->  83)
 193   9.255     134.0   0.003912   0.003473  -4.883168  -4.602243     0.05 (  55->  81)    0.05 (  64->  80)    0.03 (  56->  74)
 194   9.263     133.8   0.006784   0.006062   2.875973   2.541754     0.14 (  55->  81)    0.09 (  55->  74)    0.05 (  55->  79)
 195   9.273     133.7   0.002663   0.002305  -17.714998  -16.404187     0.06 (  60->  84)    0.06 (  62->  78)    0.05 (  69->  94)
 196   9.315     133.1   0.006675   0.006374  -22.891870  -22.565569     0.10 (  55->  74)    0.05 (  60->  76)    0.04 (  55->  76)
 197   9.321     133.0   0.005029   0.004661  -4.004166  -4.166071     0.03 (  72-> 106)    0.03 (  59->  76)    0.03 (  73-> 108)
 198   9.355     132.5   0.018026   0.014464  10.998638  10.063673     0.04 (  59->  76)    0.04 (  70->  89)    0.03 (  67->  86)
 199   9.367     132.4   0.004943   0.004257   9.734429   8.008463     0.10 (  72-> 106)    0.03 (  71-> 104)    0.03 (  60->  80)
 200   9.373     132.3   0.009728   0.009007   9.032684   9.409915     0.03 (  72-> 106)    0.03 (  63->  84)    0.02 (  37->  74)
 201   9.393     132.0   0.090640   0.078860   1.755299   1.332686     0.08 (  63->  84)    0.04 (  60->  80)    0.03 (  37->  74)
 202   9.405     131.8   0.029827   0.023979  17.274855  14.675527     0.05 (  63->  92)    0.03 (  69->  79)    0.03 (  72-> 106)
 203   9.408     131.8   0.031158   0.026847  46.625889  44.143425     0.07 (  37->  74)    0.04 (  47->  75)    0.03 (  63->  92)
 204   9.413     131.7   0.033371   0.027828  25.513421  22.711506     0.04 (  63->  92)    0.03 (  36->  74)    0.03 (  47->  75)
 205   9.422     131.6   0.027325   0.021109  -49.637226  -44.652052     0.04 (  69->  79)    0.03 (  36->  74)    0.03 (  64->  77)
 206   9.428     131.5   0.006233   0.004976  -4.164508  -3.734275     0.15 (  69->  79)    0.05 (  69->  78)    0.05 (  66->  79)
 207   9.450     131.2   0.013917   0.012154  -18.938042  -17.564136     0.05 (  61->  77)    0.04 (  64->  77)    0.03 (  56->  79)
 208   9.457     131.1   0.003421   0.002696   1.486060   0.843353     0.04 (  64->  77)    0.04 (  73->  93)    0.03 (  73-> 108)
 209   9.468     131.0   0.010957   0.010009  -20.925055  -19.567226     0.10 (  64->  77)    0.06 (  64->  83)    0.03 (  64->  80)
 210   9.481     130.8   0.007543   0.006111  -8.235132  -7.775225     0.14 (  71-> 103)    0.07 (  71-> 102)    0.04 (  70-> 103)
 211   9.484     130.7   0.004174   0.003593   1.232812   1.438514     0.09 (  71-> 103)    0.08 (  48->  75)    0.07 (  48->  76)
 212   9.507     130.4   0.010262   0.007866  28.642242  25.241440     0.06 (  71-> 103)    0.03 (  64->  82)    0.03 (  64->  80)
 213   9.512     130.3   0.027457   0.024042  -16.907332  -15.713871     0.08 (  69->  90)    0.04 (  69->  88)    0.04 (  69->  87)
 214   9.518     130.3   0.010617   0.009424  12.526799  12.474522     0.07 (  64->  80)    0.03 (  71-> 104)    0.03 (  73-> 107)
 215   9.531     130.1   0.025679   0.023639  -3.708843  -4.219758     0.04 (  68->  94)    0.04 (  73-> 108)    0.02 (  69->  90)
 216   9.553     129.8   0.005732   0.005533  -10.184822  -10.328415     0.05 (  64->  77)    0.05 (  64->  86)    0.04 (  73->  84)
 217   9.559     129.7   0.030189   0.027699  -44.063185  -41.713219     0.04 (  64->  77)    0.03 (  68->  94)    0.03 (  64->  83)
 218   9.569     129.6   0.003543   0.003015  10.166429  10.057327     0.08 (  68->  94)    0.03 (  56->  75)    0.03 (  49->  75)
 219   9.585     129.4   0.007483   0.006610  17.711836  13.202372     0.07 (  68->  94)    0.04 (  67->  94)    0.03 (  69->  90)
 220   9.589     129.3   0.008215   0.007146   7.159970   9.897395     0.09 (  64->  77)    0.05 (  66->  77)    0.05 (  49->  77)
 221   9.608     129.0   0.008763   0.007700  -7.322995  -7.753590     0.03 (  50->  75)    0.03 (  40->  74)    0.03 (  50->  76)
 222   9.610     129.0   0.001998   0.002118  -6.725468  -6.417075     0.09 (  50->  75)    0.07 (  38->  74)    0.06 (  50->  76)
 223   9.619     128.9   0.007007   0.005242  -3.372547  -2.858703     0.07 (  68->  94)    0.03 (  49->  77)    0.03 (  34->  74)
 224   9.632     128.7   0.009182   0.008840  11.296869  10.217855     0.04 (  55->  81)    0.03 (  52->  79)    0.02 (  56->  81)
 225   9.646     128.5   0.037808   0.033750   5.583914   4.899771     0.03 (  55->  74)    0.02 (  73->  84)    0.02 (  41->  74)
 226   9.650     128.5   0.011177   0.010476   0.897479   3.065418     0.05 (  60->  78)    0.03 (  60->  77)    0.03 (  63->  87)
 227   9.669     128.2   0.006094   0.004848  -5.528222  -5.008153     0.03 (  63->  87)    0.02 (  73-> 107)    0.02 (  73-> 108)
 228   9.678     128.1   0.008433   0.007006  16.743080  15.046598     0.06 (  72->  84)    0.04 (  72->  86)    0.03 (  72->  88)
 229   9.688     128.0   0.008334   0.007965   0.250798  -1.145064     0.03 (  61->  77)    0.03 (  71-> 105)    0.02 (  63->  84)
 230   9.694     127.9   0.003425   0.003022  -15.672085  -16.307042     0.07 (  62->  92)    0.05 (  62->  90)    0.04 (  61->  92)
 231   9.705     127.8   0.017738   0.017217   9.409333   9.322834     0.04 (  58->  75)    0.03 (  67->  86)    0.03 (  63->  88)
 232   9.717     127.6   0.006589   0.005599  -9.382017  -7.860260     0.03 (  70->  91)    0.02 (  60->  78)    0.02 (  61->  81)
 233   9.720     127.6   0.043715   0.040745  43.868729  41.671537     0.03 (  60->  78)    0.03 (  60->  77)    0.02 (  62->  77)
 234   9.734     127.4   0.009829   0.007900   9.354025   7.972052     0.05 (  63->  88)    0.05 (  63->  93)    0.05 (  63->  86)
 235   9.760     127.0   0.005498   0.005048   9.352586   6.688369     0.03 (  73-> 107)    0.03 (  53->  74)    0.03 (  58->  75)
 236   9.763     127.0   0.001296   0.001206  -4.853115  -4.930961     0.21 (  68->  96)    0.09 (  67->  96)    0.09 (  68->  99)
 237   9.776     126.8   0.011635   0.011685  -2.724960  -0.982153     0.07 (  73-> 106)    0.04 (  63->  87)    0.03 (  70->  99)
 238   9.787     126.7   0.040399   0.035273  52.230177  48.790157     0.05 (  71->  98)    0.04 (  73-> 110)    0.03 (  58->  75)
 239   9.804     126.5   0.031860   0.029169  21.956626  20.236778     0.03 (  72->  87)    0.03 (  73-> 107)    0.03 (  41->  74)
 240   9.811     126.4   0.002185   0.001834   1.016492   0.821479     0.03 (  60->  77)    0.03 (  72->  84)    0.03 (  56->  75)
 241   9.814     126.3   0.010073   0.008421  -17.756579  -15.858853     0.20 (  60->  77)    0.08 (  62->  77)    0.04 (  60->  88)
 242   9.829     126.1   0.028414   0.023272  -35.005661  -32.024971     0.03 (  60->  77)    0.02 (  72->  84)    0.02 (  72->  87)
 243   9.833     126.1   0.037291   0.032582  -70.189887  -64.647511     0.07 (  73-> 108)    0.03 (  71->  98)    0.02 (  68->  79)
 244   9.850     125.9   0.055159   0.051262  29.294578  28.597525     0.03 (  67->  79)    0.03 (  45->  75)    0.03 (  53->  74)
 245   9.856     125.8   0.005681   0.004516   2.478006   2.347672     0.23 (  68->  79)    0.07 (  67->  79)    0.04 (  68->  80)
 246   9.869     125.6   0.047692   0.046439  49.472443  47.434113     0.05 (  68->  79)    0.04 (  72-> 108)    0.03 (  67->  79)
 247   9.875     125.6   0.042847   0.040732  50.711311  48.759445     0.03 (  73-> 106)    0.02 (  53->  74)    0.02 (  62->  84)
 248   9.888     125.4   0.000884   0.000674  -6.255565  -5.920205     0.08 (  60->  77)    0.07 (  69->  79)    0.07 (  65->  79)
 249   9.893     125.3   0.033249   0.029238  26.882878  24.246212     0.02 (  58->  76)    0.02 (  45->  75)    0.02 (  73-> 106)
 250   9.908     125.1   0.003940   0.003621  -15.952575  -15.627341     0.03 (  53->  74)    0.03 (  46->  76)    0.02 (  72-> 107)
 251   9.925     124.9   0.039325   0.038459  -13.024369  -11.794745     0.06 (  54->  75)    0.06 (  54->  78)    0.03 (  73->  87)
 252   9.932     124.8   0.015370   0.013038  -11.246727  -10.438177     0.09 (  72-> 107)    0.09 (  72-> 108)    0.02 (  69->  80)
 253   9.939     124.7   0.045396   0.039726  27.911380  26.300874     0.08 (  54->  75)    0.07 (  54->  78)    0.05 (  73->  87)
 254   9.941     124.7   0.042155   0.037821   6.280934   6.272908     0.05 (  71->  85)    0.03 (  54->  75)    0.03 (  54->  78)
 255   9.947     124.6   0.007603   0.007297  -12.470287  -12.367984     0.02 (  61->  82)    0.02 (  60->  77)    0.02 (  61->  83)
 256   9.952     124.6   0.015842   0.014629   1.100880   0.867106     0.04 (  59->  82)    0.04 (  61->  82)    0.04 (  61->  83)
 257   9.970     124.4   0.013813   0.011833  -20.921951  -19.222016     0.04 (  59->  80)    0.03 (  52->  74)    0.02 (  43->  75)
 258   9.975     124.3   0.022427   0.019941  -4.916320  -4.750256     0.03 (  63->  87)    0.02 (  56->  76)    0.02 (  56->  75)
 259   9.982     124.2   0.027163   0.027620  -6.670077  -6.720490     0.05 (  69->  99)    0.04 (  69->  96)    0.04 (  62->  95)
 260   9.995     124.0   0.008281   0.008591   5.676346   5.946607     0.04 (  55->  75)    0.03 (  55->  74)    0.03 (  51->  74)

sTD-DFT done

Total run time:       34.487 sec

           *** ORCA-CIS/TD-DFT FINISHED WITHOUT ERROR ***


-------------------------------------------------------------------------------
                          DFT DISPERSION CORRECTION                            
                                                                               
                              DFTD3 V3.1  Rev 1                                
                              USING zero damping                               
-------------------------------------------------------------------------------
The omegaB97X-D3 functional is recognized. Fit by Chai et al.
Active option DFTDOPT                   ...         3   

molecular C6(AA) [au] = 37904.202917 


            DFT-D V3
 parameters
 s6 scaling factor         :     1.0000 
 rs6 scaling factor        :     1.2810 
 s8 scaling factor         :     1.0000 
 rs8 scaling factor        :     1.0940 
 Damping factor alpha6     :    14.0000 
 Damping factor alpha8     :    16.0000 
 ad hoc parameters k1-k3   :    16.0000     1.3333    -4.0000 

 Edisp/kcal,au: -12.983965402343  -0.020691263724 
 E6   /kcal   :  -6.103868433 
 E8   /kcal   :  -6.880096969 
 % E8         :  52.989181318 

-------------------------   ----------------
Dispersion correction           -0.020691264
-------------------------   ----------------


-------------------------   --------------------
FINAL SINGLE POINT ENERGY     -2102.095944675101
-------------------------   --------------------


                            ***************************************
                            *     ORCA property calculations      *
                            ***************************************

                                    ---------------------
                                    Active property flags
                                    ---------------------
   (+) Dipole Moment
   (+) Quadrupole Moment


------------------------------------------------------------------------------
                       ORCA ELECTRIC PROPERTIES CALCULATION
------------------------------------------------------------------------------

Dipole Moment Calculation                       ... on
Quadrupole Moment Calculation                   ... on
Polarizability Calculation                      ... off
GBWName                                         ... total_job2.gbw
Electron density file                           ... total_job2.scfp.tmp

-------------
DIPOLE MOMENT
-------------
                                X             Y             Z
Electronic contribution:    -10.95726      -5.95110      -1.38149
Nuclear contribution   :     11.28170       6.24965       1.36072
                        -----------------------------------------
Total Dipole Moment    :      0.32445       0.29855      -0.02077
                        -----------------------------------------
Magnitude (a.u.)       :      0.44139
Magnitude (Debye)      :      1.12193


------------------------
QUADRUPOLE MOMENT (A.U.)
------------------------

                XX           YY           ZZ           XY           XZ           YZ
  NUC     21819.53777   3053.52087    190.03560   -531.62641    -44.11958    179.77507
  EL     -21917.53480  -3192.55015   -344.11555    522.34519     43.88591   -177.93637
  TOT       -97.99704   -139.02929   -154.07994     -9.28122     -0.23367      1.83870

--------------------------------------------------------------------------
[[35890,1],1]: A high-performance Open MPI point-to-point messaging module
was unable to find any relevant network interfaces:

Module: OpenFabrics (openib)
  Host: cx1-105-14-4

Another transport will be used instead, although this may result in
lower performance.
--------------------------------------------------------------------------

Timings for individual modules:

Sum of individual times         ...      182.000 sec (=   3.033 min)
GTO integral calculation        ...        6.060 sec (=   0.101 min)   3.3 %
SCF iterations                  ...      137.258 sec (=   2.288 min)  75.4 %
CIS module                      ...       38.682 sec (=   0.645 min)  21.3 %



                             ****ORCA TERMINATED NORMALLY****
TOTAL RUN TIME: 0 days 0 hours 11 minutes 43 seconds 217 msec
