
                                 *****************
                                 * O   R   C   A *
                                 *****************

           --- An Ab Initio, DFT and Semiempirical electronic structure package ---

                  #######################################################
                  #                        -***-                        #
                  #  Department of molecular theory and spectroscopy    #
                  #              Directorship: Frank Neese              #
                  # Max Planck Institute for Chemical Energy Conversion #
                  #                  D-45470 Muelheim/Ruhr              #
                  #                       Germany                       #
                  #                                                     #
                  #                  All rights reserved                #
                  #                        -***-                        #
                  #######################################################


                         Program Version 4.0.0 -  RELEASE  -


 With contributions from (in alphabetic order):
   Daniel Aravena         : Magnetic Properties
   Michael Atanasov       : Ab Initio Ligand Field Theory
   Ute Becker             : Parallelization
   Martin Brehm           : Molecular dynamics
   Dmytro Bykov           : SCF Hessian
   Vijay G. Chilkuri      : MRCI spin determinant printing
   Dipayan Datta          : RHF DLPNO-CCSD density
   Achintya Kumar Dutta   : EOM-CC, STEOM-CC
   Dmitry Ganyushin       : Spin-Orbit,Spin-Spin,Magnetic field MRCI
   Yang Guo               : DLPNO-NEVPT2, CIM, IAO-localization
   Andreas Hansen         : Spin unrestricted coupled pair/coupled cluster methods
   Lee Huntington         : MR-EOM, pCC
   Robert Izsak           : Overlap fitted RIJCOSX, COSX-SCS-MP3, EOM
   Christian Kollmar      : KDIIS, OOCD, Brueckner-CCSD(T), CCSD density
   Simone Kossmann        : Meta GGA functionals, TD-DFT gradient, OOMP2, MP2 Hessian
   Martin Krupicka        : AUTO-CI
   Dagmar Lenk            : GEPOL surface
   Dimitrios Liakos       : Extrapolation schemes; parallel MDCI
   Dimitrios Manganas     : ROCIS; embedding schemes
   Dimitrios Pantazis     : SARC Basis sets
   Taras Petrenko         : DFT Hessian,TD-DFT gradient, ASA, ECA, R-Raman, ABS, FL, XAS/XES, NRVS
   Peter Pinski           : DLPNO-MP2
   Christoph Reimann      : Effective Core Potentials
   Marius Retegan         : Local ZFS, SOC
   Christoph Riplinger    : Optimizer, TS searches, QM/MM, DLPNO-CCSD(T), (RO)-DLPNO pert. Triples
   Tobias Risthaus        : Range-separated hybrids, TD-DFT gradient, RPA, STAB
   Michael Roemelt        : Restricted open shell CIS
   Masaaki Saitow         : Open-shell DLPNO
   Barbara Sandhoefer     : DKH picture change effects
   Kantharuban Sivalingam : CASSCF convergence, NEVPT2, FIC-MRCI
   Georgi Stoychev        : AutoAux
   Boris Wezisla          : Elementary symmetry handling
   Frank Wennmohs         : Technical directorship


 We gratefully acknowledge several colleagues who have allowed us to
 interface, adapt or use parts of their codes:
   Stefan Grimme, W. Hujo, H. Kruse,             : VdW corrections, initial TS optimization,
                  C. Bannwarth                     DFT functionals, gCP, sTDA/sTD-DF
   Ed Valeev                                     : LibInt (2-el integral package), F12 methods
   Garnet Chan, S. Sharma, J. Yang, R. Olivares  : DMRG
   Ulf Ekstrom                                   : XCFun DFT Library
   Mihaly Kallay                                 : mrcc  (arbitrary order and MRCC methods)
   Jiri Pittner, Ondrej Demel                    : Mk-CCSD
   Frank Weinhold                                : gennbo (NPA and NBO analysis)
   Christopher J. Cramer and Donald G. Truhlar   : smd solvation model


 Your calculation uses the libint2 library for the computation of 2-el integrals
 For citations please refer to: http://libint.valeyev.net

 This ORCA versions uses:
   CBLAS   interface :  Fast vector & matrix operations
   LAPACKE interface :  Fast linear algebra routines
   SCALAPACK package :  Parallel linear algebra routines


Your calculation utilizes the atom-pairwise dispersion correction
with the zero-damping scheme (D30)
Cite in your paper:
S.Grimme, J.Antony, S.Ehrlich and H.Krieg, J.Chem.Phys., 132, (2010), 154104 
   

XCFun DFT library Copyright 2009-2010 Ulf Ekstrom and contributors.
See http://admol.org/xcfun for more information. This is free soft-
ware; see the source code for copying conditions. There is ABSOLUTELY
NO WARRANTY; not even for MERCHANTABILITY or FITNESS FOR A PARTICULAR
PURPOSE. For details see the documentation. Scientific users of this 
library should cite U. Ekstrom, L. Visscher, R. Bast, A. J. Thorvald-
sen and K. Ruud; J.Chem.Theor.Comp. 2010, DOI: 10.1021/ct100117s
XCFun Version 0.99 
Your calculation utilizes the basis: def2-TZVP
   F. Weigend and R. Ahlrichs, Phys. Chem. Chem. Phys. 7, 3297 (2005).

Your calculation utilizes the auxiliary basis: def2/J
   F. Weigend, Phys. Chem. Chem. Phys. 8, 1057 (2006).

================================================================================
                                        WARNINGS
                       Please study these warnings very carefully!
================================================================================

Warning: TCutStore was < 0. Adjusted to Thresh (uncritical)
INFO   : Checking CIS options ...

WARNING: CIS/ROCIS methods need fully converged wavefunctions
  ===> : Setting SCFConvForced true
         You can overwrite this default with %scf ConvForced false 


INFO   : the flag for use of LIBINT has been found!

Your calculation utilizes the atom-pairwise dispersion correction
with the zero-damping scheme (D30)
Cite in your paper:
S.Grimme, J.Antony, S.Ehrlich and H.Krieg, J.Chem.Phys., 132, (2010), 154104 
   

XCFun DFT library Copyright 2009-2010 Ulf Ekstrom and contributors.
See http://admol.org/xcfun for more information. This is free soft-
ware; see the source code for copying conditions. There is ABSOLUTELY
NO WARRANTY; not even for MERCHANTABILITY or FITNESS FOR A PARTICULAR
PURPOSE. For details see the documentation. Scientific users of this 
library should cite U. Ekstrom, L. Visscher, R. Bast, A. J. Thorvald-
sen and K. Ruud; J.Chem.Theor.Comp. 2010, DOI: 10.1021/ct100117s
XCFun Version 0.99 
Your calculation utilizes the basis: def2-TZVP
   F. Weigend and R. Ahlrichs, Phys. Chem. Chem. Phys. 7, 3297 (2005).

Your calculation utilizes the auxiliary basis: def2/J
   F. Weigend, Phys. Chem. Chem. Phys. 8, 1057 (2006).

================================================================================
                                        WARNINGS
                       Please study these warnings very carefully!
================================================================================

INFO   : Checking CIS options ...

INFO   : the flag for use of LIBINT has been found!

================================================================================
                                       INPUT FILE
================================================================================
NAME = total.inp
|  1> # 
|  2> !wB97X-D3 def2-TZVP def2/J RIJCOSX Grid5 FinalGrid6 TightSCF
|  3> %pal 
|  4>  nprocs 24
|  5> end
|  6> %tddft
|  7>   Mode sTDDFT
|  8>   nroots 2
|  9>   Ethresh 10.0
| 10>   maxcore 5000
| 11>   triplets true
| 12> end
| 13> * xyz 0 1 
| 14> C 7.27176567 -2.13310939 -3.17830295
| 15> C 6.78076811 -1.29359194 -2.18175712
| 16> C 7.68687509 -0.53469153 -1.41635827
| 17> C 9.07838742 -0.67598445 -1.68034812
| 18> C 9.57532936 -1.51689715 -2.68785716
| 19> C 8.64985970 -2.24059585 -3.43509811
| 20> C 7.56975220 0.40093869 -0.30811233
| 21> C 8.90409128 0.75277473 0.05311749
| 22> N 9.78964040 0.11259588 -0.79296183
| 23> C 9.20790728 1.60437526 1.12574949
| 24> C 8.14100459 2.10752454 1.86659669
| 25> C 6.81879645 1.78659146 1.53248108
| 26> C 6.49848326 0.95480332 0.44310892
| 27> H 6.00908174 2.21482602 2.11716346
| 28> H 10.79879839 0.18190335 -0.74568023
| 29> H 8.33199003 2.76436398 2.71031710
| 30> H 5.71171039 -1.23858396 -2.00460755
| 31> H 10.64281025 -1.60347085 -2.87177662
| 32> H 8.99702868 -2.90308399 -4.22341469
| 33> H 6.57575244 -2.71927957 -3.77179963
| 34> C -0.59039071 0.41826514 1.23900831
| 35> N -0.68338852 0.17423218 -0.07875377
| 36> O 0.58223014 0.20343458 -0.57255618
| 37> C 1.45930484 0.45967654 0.41112611
| 38> C 0.77776929 0.60811752 1.60258872
| 39> C 2.87673016 0.53123564 0.08419020
| 40> N 3.33155190 0.35211219 -1.16473530
| 41> O 4.68293294 0.48203293 -1.10610379
| 42> C 5.07830795 0.73366541 0.15054995
| 43> C 3.96360123 0.78940967 0.96813254
| 44> H 3.92832145 0.96277940 2.03375905
| 45> H 1.18882661 0.82091828 2.57934435
| 46> C -6.60504413 0.67086621 -1.43316782
| 47> C -7.04455164 0.63760112 -2.75504032
| 48> C -6.31808269 -0.06211645 -3.72089500
| 49> C -5.13664110 -0.71379342 -3.36197690
| 50> C -4.69007820 -0.67696836 -2.04255515
| 51> C -5.42762906 -0.00003042 -1.05603718
| 52> C -4.91200239 0.04172591 0.34112907
| 53> C -5.80572310 0.00216938 1.50437517
| 54> N -5.36246455 0.22245441 2.73900202
| 55> C -4.00265974 0.41097801 2.88563369
| 56> C -3.10957450 0.31532070 1.75394134
| 57> N -3.59264815 0.15617523 0.47663997
| 58> C -3.33837125 0.64364193 4.08729445
| 59> S -1.62312572 0.73298653 3.82543070
| 60> C -1.75721613 0.46390997 2.10284243
| 61> C -7.25239986 -0.33417807 1.37302386
| 62> C -7.69690041 -1.34615575 0.50332011
| 63> C -9.05139326 -1.66252282 0.42142117
| 64> C -9.98277159 -0.97638600 1.20381504
| 65> C -9.55050714 0.01745992 2.08375137
| 66> C -8.19544871 0.33087533 2.17438308
| 67> H -7.85516731 1.10166746 2.86121434
| 68> H -10.27132652 0.54686314 2.70206070
| 69> H -11.03949445 -1.22124119 1.13363436
| 70> H -9.38159650 -2.44822202 -0.25332908
| 71> H -6.97762677 -1.89666583 -0.09795200
| 72> H -3.76727692 -1.17713629 -1.76052423
| 73> H -4.56124750 -1.24855398 -4.11363417
| 74> H -6.66622510 -0.09030435 -4.75028423
| 75> H -7.95498330 1.16235559 -3.03346557
| 76> H -7.16745861 1.23556826 -0.69372422
| 77> H 10.23605343 1.85261464 1.37337667
| 78> H -3.77434715 0.75175321 5.07208653
| 79> *
| 80> $new_job
| 81> # 
| 82> !wB97X-D3 def2-TZVP def2/J RIJCOSX Grid5 FinalGrid6 TightSCF
| 83> %pal 
| 84>  nprocs 24
| 85> end
| 86> %elprop
| 87>    dipole     true
| 88>    quadrupole true
| 89> end
| 90> %tddft
| 91>   Mode sTDDFT
| 92>   nroots 2
| 93>   Ethresh 10.0
| 94>   maxcore 5000
| 95> end
| 96> * xyz 0 1 
| 97> C 7.27176567 -2.13310939 -3.17830295
| 98> C 6.78076811 -1.29359194 -2.18175712
| 99> C 7.68687509 -0.53469153 -1.41635827
|100> C 9.07838742 -0.67598445 -1.68034812
|101> C 9.57532936 -1.51689715 -2.68785716
|102> C 8.64985970 -2.24059585 -3.43509811
|103> C 7.56975220 0.40093869 -0.30811233
|104> C 8.90409128 0.75277473 0.05311749
|105> N 9.78964040 0.11259588 -0.79296183
|106> C 9.20790728 1.60437526 1.12574949
|107> C 8.14100459 2.10752454 1.86659669
|108> C 6.81879645 1.78659146 1.53248108
|109> C 6.49848326 0.95480332 0.44310892
|110> H 6.00908174 2.21482602 2.11716346
|111> H 10.79879839 0.18190335 -0.74568023
|112> H 8.33199003 2.76436398 2.71031710
|113> H 5.71171039 -1.23858396 -2.00460755
|114> H 10.64281025 -1.60347085 -2.87177662
|115> H 8.99702868 -2.90308399 -4.22341469
|116> H 6.57575244 -2.71927957 -3.77179963
|117> C -0.59039071 0.41826514 1.23900831
|118> N -0.68338852 0.17423218 -0.07875377
|119> O 0.58223014 0.20343458 -0.57255618
|120> C 1.45930484 0.45967654 0.41112611
|121> C 0.77776929 0.60811752 1.60258872
|122> C 2.87673016 0.53123564 0.08419020
|123> N 3.33155190 0.35211219 -1.16473530
|124> O 4.68293294 0.48203293 -1.10610379
|125> C 5.07830795 0.73366541 0.15054995
|126> C 3.96360123 0.78940967 0.96813254
|127> H 3.92832145 0.96277940 2.03375905
|128> H 1.18882661 0.82091828 2.57934435
|129> C -6.60504413 0.67086621 -1.43316782
|130> C -7.04455164 0.63760112 -2.75504032
|131> C -6.31808269 -0.06211645 -3.72089500
|132> C -5.13664110 -0.71379342 -3.36197690
|133> C -4.69007820 -0.67696836 -2.04255515
|134> C -5.42762906 -0.00003042 -1.05603718
|135> C -4.91200239 0.04172591 0.34112907
|136> C -5.80572310 0.00216938 1.50437517
|137> N -5.36246455 0.22245441 2.73900202
|138> C -4.00265974 0.41097801 2.88563369
|139> C -3.10957450 0.31532070 1.75394134
|140> N -3.59264815 0.15617523 0.47663997
|141> C -3.33837125 0.64364193 4.08729445
|142> S -1.62312572 0.73298653 3.82543070
|143> C -1.75721613 0.46390997 2.10284243
|144> C -7.25239986 -0.33417807 1.37302386
|145> C -7.69690041 -1.34615575 0.50332011
|146> C -9.05139326 -1.66252282 0.42142117
|147> C -9.98277159 -0.97638600 1.20381504
|148> C -9.55050714 0.01745992 2.08375137
|149> C -8.19544871 0.33087533 2.17438308
|150> H -7.85516731 1.10166746 2.86121434
|151> H -10.27132652 0.54686314 2.70206070
|152> H -11.03949445 -1.22124119 1.13363436
|153> H -9.38159650 -2.44822202 -0.25332908
|154> H -6.97762677 -1.89666583 -0.09795200
|155> H -3.76727692 -1.17713629 -1.76052423
|156> H -4.56124750 -1.24855398 -4.11363417
|157> H -6.66622510 -0.09030435 -4.75028423
|158> H -7.95498330 1.16235559 -3.03346557
|159> H -7.16745861 1.23556826 -0.69372422
|160> H 10.23605343 1.85261464 1.37337667
|161> H -3.77434715 0.75175321 5.07208653
|162> *
|163> 
|164>                          ****END OF INPUT****
================================================================================


                 $$$$$$$$$$$$$$$$$$$$$$$$$$$$$$$$$$$$$$$$$$$$$$ 
                 $ THERE ARE  2 JOBS TO BE PROCESSED THIS RUN $
                 $$$$$$$$$$$$$$$$$$$$$$$$$$$$$$$$$$$$$$$$$$$$$$ 




                 $$$$$$$$$$$$$$$$  JOB NUMBER  1 $$$$$$$$$$$$$$


                       ****************************
                       * Single Point Calculation *
                       ****************************

---------------------------------
CARTESIAN COORDINATES (ANGSTROEM)
---------------------------------
  C      7.271766   -2.133109   -3.178303
  C      6.780768   -1.293592   -2.181757
  C      7.686875   -0.534692   -1.416358
  C      9.078387   -0.675984   -1.680348
  C      9.575329   -1.516897   -2.687857
  C      8.649860   -2.240596   -3.435098
  C      7.569752    0.400939   -0.308112
  C      8.904091    0.752775    0.053117
  N      9.789640    0.112596   -0.792962
  C      9.207907    1.604375    1.125749
  C      8.141005    2.107525    1.866597
  C      6.818796    1.786591    1.532481
  C      6.498483    0.954803    0.443109
  H      6.009082    2.214826    2.117163
  H     10.798798    0.181903   -0.745680
  H      8.331990    2.764364    2.710317
  H      5.711710   -1.238584   -2.004608
  H     10.642810   -1.603471   -2.871777
  H      8.997029   -2.903084   -4.223415
  H      6.575752   -2.719280   -3.771800
  C     -0.590391    0.418265    1.239008
  N     -0.683389    0.174232   -0.078754
  O      0.582230    0.203435   -0.572556
  C      1.459305    0.459677    0.411126
  C      0.777769    0.608118    1.602589
  C      2.876730    0.531236    0.084190
  N      3.331552    0.352112   -1.164735
  O      4.682933    0.482033   -1.106104
  C      5.078308    0.733665    0.150550
  C      3.963601    0.789410    0.968133
  H      3.928321    0.962779    2.033759
  H      1.188827    0.820918    2.579344
  C     -6.605044    0.670866   -1.433168
  C     -7.044552    0.637601   -2.755040
  C     -6.318083   -0.062116   -3.720895
  C     -5.136641   -0.713793   -3.361977
  C     -4.690078   -0.676968   -2.042555
  C     -5.427629   -0.000030   -1.056037
  C     -4.912002    0.041726    0.341129
  C     -5.805723    0.002169    1.504375
  N     -5.362465    0.222454    2.739002
  C     -4.002660    0.410978    2.885634
  C     -3.109574    0.315321    1.753941
  N     -3.592648    0.156175    0.476640
  C     -3.338371    0.643642    4.087294
  S     -1.623126    0.732987    3.825431
  C     -1.757216    0.463910    2.102842
  C     -7.252400   -0.334178    1.373024
  C     -7.696900   -1.346156    0.503320
  C     -9.051393   -1.662523    0.421421
  C     -9.982772   -0.976386    1.203815
  C     -9.550507    0.017460    2.083751
  C     -8.195449    0.330875    2.174383
  H     -7.855167    1.101667    2.861214
  H    -10.271327    0.546863    2.702061
  H    -11.039494   -1.221241    1.133634
  H     -9.381597   -2.448222   -0.253329
  H     -6.977627   -1.896666   -0.097952
  H     -3.767277   -1.177136   -1.760524
  H     -4.561247   -1.248554   -4.113634
  H     -6.666225   -0.090304   -4.750284
  H     -7.954983    1.162356   -3.033466
  H     -7.167459    1.235568   -0.693724
  H     10.236053    1.852615    1.373377
  H     -3.774347    0.751753    5.072087

----------------------------
CARTESIAN COORDINATES (A.U.)
----------------------------
  NO LB      ZA    FRAG     MASS         X           Y           Z
   0 C     6.0000    0    12.011   13.741646   -4.030993   -6.006122
   1 C     6.0000    0    12.011   12.813795   -2.444534   -4.122923
   2 C     6.0000    0    12.011   14.526089   -1.010421   -2.676529
   3 C     6.0000    0    12.011   17.155666   -1.277425   -3.175398
   4 C     6.0000    0    12.011   18.094750   -2.866520   -5.079314
   5 C     6.0000    0    12.011   16.345866   -4.234113   -6.491395
   6 C     6.0000    0    12.011   14.304759    0.757664   -0.582248
   7 C     6.0000    0    12.011   16.826294    1.422538    0.100378
   8 N     7.0000    0    14.007   18.499739    0.212775   -1.498481
   9 C     6.0000    0    12.011   17.400423    3.031830    2.127358
  10 C     6.0000    0    12.011   15.384269    3.982644    3.527357
  11 C     6.0000    0    12.011   12.885658    3.376169    2.895970
  12 C     6.0000    0    12.011   12.280354    1.804317    0.837355
  13 H     1.0000    0     1.008   11.355519    4.185415    4.000859
  14 H     1.0000    0     1.008   20.406772    0.343748   -1.409131
  15 H     1.0000    0     1.008   15.745179    5.223891    5.121757
  16 H     1.0000    0     1.008   10.793568   -2.340584   -3.788159
  17 H     1.0000    0     1.008   20.111997   -3.030121   -5.426871
  18 H     1.0000    0     1.008   17.001920   -5.486034   -7.981097
  19 H     1.0000    0     1.008   12.426371   -5.138694   -7.127668
  20 C     6.0000    0    12.011   -1.115677    0.790407    2.341386
  21 N     7.0000    0    14.007   -1.291417    0.329251   -0.148823
  22 O     8.0000    0    15.999    1.100256    0.384436   -1.081974
  23 C     6.0000    0    12.011    2.757686    0.868663    0.776916
  24 C     6.0000    0    12.011    1.469771    1.149176    3.028454
  25 C     6.0000    0    12.011    5.436232    1.003890    0.159096
  26 N     7.0000    0    14.007    6.295721    0.665396   -2.201031
  27 O     8.0000    0    15.999    8.849461    0.910910   -2.090233
  28 C     6.0000    0    12.011    9.596611    1.386427    0.284498
  29 C     6.0000    0    12.011    7.490121    1.491768    1.829505
  30 H     1.0000    0     1.008    7.423452    1.819389    3.843248
  31 H     1.0000    0     1.008    2.246557    1.551311    4.874254
  32 C     6.0000    0    12.011  -12.481725    1.267753   -2.708295
  33 C     6.0000    0    12.011  -13.312273    1.204891   -5.206272
  34 C     6.0000    0    12.011  -11.939446   -0.117383   -7.031473
  35 C     6.0000    0    12.011   -9.706845   -1.348874   -6.353216
  36 C     6.0000    0    12.011   -8.862963   -1.279285   -3.859870
  37 C     6.0000    0    12.011  -10.256732   -0.000057   -1.995621
  38 C     6.0000    0    12.011   -9.282339    0.078851    0.644641
  39 C     6.0000    0    12.011  -10.971227    0.004100    2.842857
  40 N     7.0000    0    14.007  -10.133589    0.420378    5.175964
  41 C     6.0000    0    12.011   -7.563931    0.776636    5.453057
  42 C     6.0000    0    12.011   -5.876244    0.595870    3.314469
  43 N     7.0000    0    14.007   -6.789121    0.295128    0.900719
  44 C     6.0000    0    12.011   -6.308607    1.216307    7.723867
  45 S    16.0000    0    32.060   -3.067263    1.385144    7.229016
  46 C     6.0000    0    12.011   -3.320657    0.876663    3.973796
  47 C     6.0000    0    12.011  -13.705050   -0.631505    2.594639
  48 C     6.0000    0    12.011  -14.545034   -2.543866    0.951137
  49 C     6.0000    0    12.011  -17.104654   -3.141713    0.796371
  50 C     6.0000    0    12.011  -18.864704   -1.845102    2.274881
  51 C     6.0000    0    12.011  -18.047843    0.032994    3.937719
  52 C     6.0000    0    12.011  -15.487154    0.625264    4.108989
  53 H     1.0000    0     1.008  -14.844115    2.081850    5.406912
  54 H     1.0000    0     1.008  -19.409994    1.033422    5.106155
  55 H     1.0000    0     1.008  -20.861621   -2.307811    2.142258
  56 H     1.0000    0     1.008  -17.728648   -4.626469   -0.478723
  57 H     1.0000    0     1.008  -13.185804   -3.584179   -0.185102
  58 H     1.0000    0     1.008   -7.119122   -2.224465   -3.326909
  59 H     1.0000    0     1.008   -8.619509   -2.359425   -7.773642
  60 H     1.0000    0     1.008  -12.597340   -0.170650   -8.976736
  61 H     1.0000    0     1.008  -15.032740    2.196534   -5.732419
  62 H     1.0000    0     1.008  -13.544534    2.334886   -1.310949
  63 H     1.0000    0     1.008   19.343338    3.500934    2.595306
  64 H     1.0000    0     1.008   -7.132482    1.420608    9.584854

--------------------------------
INTERNAL COORDINATES (ANGSTROEM)
--------------------------------
 C      0   0   0     0.000000000000     0.00000000     0.00000000
 C      1   0   0     1.392469656427     0.00000000     0.00000000
 C      2   1   0     1.408117570050   119.14620834     0.00000000
 C      3   2   1     1.423362531011   118.34472931   358.93870731
 C      4   3   2     1.403267589034   122.60577502     1.38355027
 C      5   4   3     1.392337221121   117.47819196   359.33715204
 C      3   2   1     1.455105062690   135.13230233   181.50588605
 C      7   3   2     1.426441853815   106.03213911   176.52306361
 N      8   7   3     1.381982785584   109.27557265     1.57191261
 C      8   7   3     1.402878124420   123.08859217   182.53608634
 C     10   8   7     1.392944766185   117.39027426     0.64383295
 C     11  10   8     1.401023071961   120.88156923   359.01854444
 C     12  11  10     1.407552397787   122.32390278   359.74826462
 H     12  11  10     1.086681294332   118.98792183   181.41671619
 H      9   8   7     1.012639582417   125.33023941   180.81037321
 H     11  10   8     1.086175684906   119.79477606   179.52868455
 H      2   1   3     1.085030993431   119.65842756   180.31425009
 H      5   4   3     1.086663160236   121.14066639   179.73383893
 H      6   5   4     1.086673762736   119.59424120   180.05945008
 H      1   2   3     1.086401493660   119.36418486   180.07689127
 C     14  12  11     6.895783065130   122.81453837   186.36318672
 N     21  14  12     1.343390329620   103.79775166   326.04861300
 O     22  21  14     1.358853999820   106.74324651     8.65038551
 C     23  22  21     1.342591084100   110.26102833     0.03800271
 C     24  23  22     1.380618912476   109.28874107     0.02496483
 C     24  23  22     1.456400470962   118.73067510   179.93882995
 N     26  24  23     1.341179678517   122.17615803     0.11763455
 O     27  26  24     1.358877392526   106.51710403   180.16053721
 C     28  27  26     1.341200553899   110.58096298     0.18385597
 C     29  28  27     1.383517179368   108.88907873   359.41257955
 H     30  29  28     1.080213675609   128.00613847   179.28276477
 H     25  24  23     1.080881050125   127.82790138   180.06984506
 C     22  21  14     6.094841092435   105.69049570   201.07660625
 C     33  22  21     1.393420368667   121.01891409   172.16641766
 C     34  33  22     1.396508888607   120.26426609    28.21092594
 C     35  34  33     1.396176674464   119.75332119   359.06323211
 C     36  35  34     1.393430394054   120.15031476     0.59660793
 C     37  36  35     1.405504873998   120.60865794     0.76607521
 C     38  37  36     1.489861733199   119.34784124   181.06102489
 C     39  38  37     1.467461384744   122.12988193   215.31413181
 N     40  39  38     1.330153034553   121.89403765   189.36579365
 C     41  40  39     1.380619830259   116.70572762   356.18698092
 C     42  41  40     1.444811109423   121.10331979   357.48722221
 N     39  38  37     1.331224046310   116.15970856    37.18600153
 C     42  41  40     1.392623524051   125.75145283   180.53179297
 S     45  42  41     1.737418288524   110.45406114   176.77914882
 C     43  42  41     1.404522660078   113.17832904   183.26414647
 C     40  39  38     1.491058825695   121.81291028    11.53943946
 C     48  40  39     1.406436694819   121.56219320    40.05454700
 C     49  48  40     1.393357972689   120.46096656   178.51156756
 C     50  49  48     1.396563459771   120.25329675     0.00000000
 C     51  50  49     1.396019416874   119.76120112   359.13550652
 C     52  51  50     1.393781430066   120.13975807     0.46469275
 H     53  52  51     1.087036852443   120.32288149   180.22658188
 H     52  51  50     1.087269412563   119.98731133   180.62940530
 H     51  50  49     1.086987854008   120.09906412   179.64030417
 H     50  49  48     1.087035101762   119.72842128   180.12453397
 H     49  48  40     1.087172510526   119.81823609   359.48744532
 H     37  36  35     1.086863193050   120.37437801   180.42878505
 H     36  35  34     1.087214469641   119.97951417   180.81037922
 H     35  34  33     1.087032604013   120.08824792   179.69505602
 H     34  33  22     1.087094145487   119.70948368   208.43448438
 H     33  22  21     1.087186869939   113.19070696    19.88019075
 H     10   8   7     1.086290253946   121.19747295   180.05165269
 H     45  42  41     1.082394787069   127.56221718   357.35502572

---------------------------
INTERNAL COORDINATES (A.U.)
---------------------------
 C      0   0   0     0.000000000000     0.00000000     0.00000000
 C      1   0   0     2.631386300443     0.00000000     0.00000000
 C      2   1   0     2.660956571758   119.14620834     0.00000000
 C      3   2   1     2.689765372897   118.34472931   358.93870731
 C      4   3   2     2.651791435883   122.60577502     1.38355027
 C      5   4   3     2.631136033984   117.47819196   359.33715204
 C      3   2   1     2.749750064566   135.13230233   181.50588605
 C      7   3   2     2.695584449673   106.03213911   176.52306361
 N      8   7   3     2.611568986548   109.27557265     1.57191261
 C      8   7   3     2.651055454423   123.08859217   182.53608634
 C     10   8   7     2.632284127768   117.39027426     0.64383295
 C     11  10   8     2.647549913311   120.88156923   359.01854444
 C     12  11  10     2.659888550961   122.32390278   359.74826462
 H     12  11  10     2.053530041143   118.98792183   181.41671619
 H      9   8   7     1.913611483136   125.33023941   180.81037321
 H     11  10   8     2.052574577798   119.79477606   179.52868455
 H      2   1   3     2.050411424402   119.65842756   180.31425009
 H      5   4   3     2.053495772667   121.14066639   179.73383893
 H      6   5   4     2.053515808488   119.59424120   180.05945008
 H      1   2   3     2.053001294501   119.36418486   180.07689127
 C     14  12  11    13.031141472027   122.81453837   186.36318672
 N     21  14  12     2.538639813940   103.79775166   326.04861300
 O     22  21  14     2.567861915644   106.74324651     8.65038551
 C     23  22  21     2.537129458793   110.26102833     0.03800271
 C     24  23  22     2.608991639891   109.28874107     0.02496483
 C     24  23  22     2.752198031432   118.73067510   179.93882995
 N     26  24  23     2.534462288778   122.17615803     0.11763455
 O     27  26  24     2.567906121451   106.51710403   180.16053721
 C     28  27  26     2.534501737533   110.58096298     0.18385597
 C     29  28  27     2.614468570581   108.88907873   359.41257955
 H     30  29  28     2.041308013017   128.00613847   179.28276477
 H     25  24  23     2.042569168081   127.82790138   180.06984506
 C     22  21  14    11.517580494472   105.69049570   201.07660625
 C     33  22  21     2.633182886208   121.01891409   172.16641766
 C     34  33  22     2.639019343054   120.26426609    28.21092594
 C     35  34  33     2.638391549306   119.75332119   359.06323211
 C     36  35  34     2.633201831444   120.15031476     0.59660793
 C     37  36  35     2.656019291747   120.60865794     0.76607521
 C     38  37  36     2.815430653155   119.34784124   181.06102489
 C     39  38  37     2.773100129270   122.12988193   215.31413181
 N     40  39  38     2.513624951510   121.89403765   189.36579365
 C     41  40  39     2.608993374249   116.70572762   356.18698092
 C     42  41  40     2.730297312056   121.10331979   357.48722221
 N     39  38  37     2.515648870416   116.15970856    37.18600153
 C     42  41  40     2.631677068113   125.75145283   180.53179297
 S     45  42  41     3.283244745377   110.45406114   176.77914882
 C     43  42  41     2.654163176433   113.17832904   183.26414647
 C     40  39  38     2.817692830131   121.81291028    11.53943946
 C     48  40  39     2.657780177905   121.56219320    40.05454700
 C     49  48  40     2.633064974897   120.46096656   178.51156756
 C     50  49  48     2.639122467608   120.25329675     0.00000000
 C     51  50  49     2.638094375528   119.76120112   359.13550652
 C     52  51  50     2.633865193370   120.13975807     0.46469275
 H     53  52  51     2.054201948597   120.32288149   180.22658188
 H     52  51  50     2.054641423533   119.98731133   180.62940530
 H     51  50  49     2.054109354975   120.09906412   179.64030417
 H     50  49  48     2.054198640289   119.72842128   180.12453397
 H     49  48  40     2.054458305223   119.81823609   359.48744532
 H     37  36  35     2.053873779903   120.37437801   180.42878505
 H     36  35  34     2.054537596458   119.97951417   180.81037922
 H     35  34  33     2.054193920228   120.08824792   179.69505602
 H     34  33  22     2.054310216760   119.70948368   208.43448438
 H     33  22  21     2.054485440581   113.19070696    19.88019075
 H     10   8   7     2.052791081905   121.19747295   180.05165269
 H     45  42  41     2.045429716345   127.56221718   357.35502572

---------------------
BASIS SET INFORMATION
---------------------
There are 5 groups of distinct atoms

 Group   1 Type C   : 11s6p2d1f contracted to 5s3p2d1f pattern {62111/411/11/1}
 Group   2 Type N   : 11s6p2d1f contracted to 5s3p2d1f pattern {62111/411/11/1}
 Group   3 Type H   : 5s1p contracted to 3s1p pattern {311/1}
 Group   4 Type O   : 11s6p2d1f contracted to 5s3p2d1f pattern {62111/411/11/1}
 Group   5 Type S   : 14s9p3d1f contracted to 5s5p2d1f pattern {73211/51111/21/1}

Atom   0C    basis set group =>   1
Atom   1C    basis set group =>   1
Atom   2C    basis set group =>   1
Atom   3C    basis set group =>   1
Atom   4C    basis set group =>   1
Atom   5C    basis set group =>   1
Atom   6C    basis set group =>   1
Atom   7C    basis set group =>   1
Atom   8N    basis set group =>   2
Atom   9C    basis set group =>   1
Atom  10C    basis set group =>   1
Atom  11C    basis set group =>   1
Atom  12C    basis set group =>   1
Atom  13H    basis set group =>   3
Atom  14H    basis set group =>   3
Atom  15H    basis set group =>   3
Atom  16H    basis set group =>   3
Atom  17H    basis set group =>   3
Atom  18H    basis set group =>   3
Atom  19H    basis set group =>   3
Atom  20C    basis set group =>   1
Atom  21N    basis set group =>   2
Atom  22O    basis set group =>   4
Atom  23C    basis set group =>   1
Atom  24C    basis set group =>   1
Atom  25C    basis set group =>   1
Atom  26N    basis set group =>   2
Atom  27O    basis set group =>   4
Atom  28C    basis set group =>   1
Atom  29C    basis set group =>   1
Atom  30H    basis set group =>   3
Atom  31H    basis set group =>   3
Atom  32C    basis set group =>   1
Atom  33C    basis set group =>   1
Atom  34C    basis set group =>   1
Atom  35C    basis set group =>   1
Atom  36C    basis set group =>   1
Atom  37C    basis set group =>   1
Atom  38C    basis set group =>   1
Atom  39C    basis set group =>   1
Atom  40N    basis set group =>   2
Atom  41C    basis set group =>   1
Atom  42C    basis set group =>   1
Atom  43N    basis set group =>   2
Atom  44C    basis set group =>   1
Atom  45S    basis set group =>   5
Atom  46C    basis set group =>   1
Atom  47C    basis set group =>   1
Atom  48C    basis set group =>   1
Atom  49C    basis set group =>   1
Atom  50C    basis set group =>   1
Atom  51C    basis set group =>   1
Atom  52C    basis set group =>   1
Atom  53H    basis set group =>   3
Atom  54H    basis set group =>   3
Atom  55H    basis set group =>   3
Atom  56H    basis set group =>   3
Atom  57H    basis set group =>   3
Atom  58H    basis set group =>   3
Atom  59H    basis set group =>   3
Atom  60H    basis set group =>   3
Atom  61H    basis set group =>   3
Atom  62H    basis set group =>   3
Atom  63H    basis set group =>   3
Atom  64H    basis set group =>   3
-------------------------------
AUXILIARY BASIS SET INFORMATION
-------------------------------
There are 5 groups of distinct atoms

 Group   1 Type C   : 12s5p4d2f1g contracted to 6s4p3d1f1g pattern {711111/2111/211/2/1}
 Group   2 Type N   : 12s5p4d2f1g contracted to 6s4p3d1f1g pattern {711111/2111/211/2/1}
 Group   3 Type H   : 5s2p1d contracted to 3s1p1d pattern {311/2/1}
 Group   4 Type O   : 12s5p4d2f1g contracted to 6s4p3d1f1g pattern {711111/2111/211/2/1}
 Group   5 Type S   : 14s5p5d2f1g contracted to 8s4p3d1f1g pattern {71111111/2111/311/2/1}

Atom   0C    basis set group =>   1
Atom   1C    basis set group =>   1
Atom   2C    basis set group =>   1
Atom   3C    basis set group =>   1
Atom   4C    basis set group =>   1
Atom   5C    basis set group =>   1
Atom   6C    basis set group =>   1
Atom   7C    basis set group =>   1
Atom   8N    basis set group =>   2
Atom   9C    basis set group =>   1
Atom  10C    basis set group =>   1
Atom  11C    basis set group =>   1
Atom  12C    basis set group =>   1
Atom  13H    basis set group =>   3
Atom  14H    basis set group =>   3
Atom  15H    basis set group =>   3
Atom  16H    basis set group =>   3
Atom  17H    basis set group =>   3
Atom  18H    basis set group =>   3
Atom  19H    basis set group =>   3
Atom  20C    basis set group =>   1
Atom  21N    basis set group =>   2
Atom  22O    basis set group =>   4
Atom  23C    basis set group =>   1
Atom  24C    basis set group =>   1
Atom  25C    basis set group =>   1
Atom  26N    basis set group =>   2
Atom  27O    basis set group =>   4
Atom  28C    basis set group =>   1
Atom  29C    basis set group =>   1
Atom  30H    basis set group =>   3
Atom  31H    basis set group =>   3
Atom  32C    basis set group =>   1
Atom  33C    basis set group =>   1
Atom  34C    basis set group =>   1
Atom  35C    basis set group =>   1
Atom  36C    basis set group =>   1
Atom  37C    basis set group =>   1
Atom  38C    basis set group =>   1
Atom  39C    basis set group =>   1
Atom  40N    basis set group =>   2
Atom  41C    basis set group =>   1
Atom  42C    basis set group =>   1
Atom  43N    basis set group =>   2
Atom  44C    basis set group =>   1
Atom  45S    basis set group =>   5
Atom  46C    basis set group =>   1
Atom  47C    basis set group =>   1
Atom  48C    basis set group =>   1
Atom  49C    basis set group =>   1
Atom  50C    basis set group =>   1
Atom  51C    basis set group =>   1
Atom  52C    basis set group =>   1
Atom  53H    basis set group =>   3
Atom  54H    basis set group =>   3
Atom  55H    basis set group =>   3
Atom  56H    basis set group =>   3
Atom  57H    basis set group =>   3
Atom  58H    basis set group =>   3
Atom  59H    basis set group =>   3
Atom  60H    basis set group =>   3
Atom  61H    basis set group =>   3
Atom  62H    basis set group =>   3
Atom  63H    basis set group =>   3
Atom  64H    basis set group =>   3
-------------------------
ECP PARAMETER INFORMATION
-------------------------



--------------------------------------------------------------------------
[[39832,1],9]: A high-performance Open MPI point-to-point messaging module
was unable to find any relevant network interfaces:

Module: OpenFabrics (openib)
  Host: cx1-138-14-1

Another transport will be used instead, although this may result in
lower performance.
--------------------------------------------------------------------------


           ************************************************************
           *        Program running with 24 parallel MPI-processes    *
           *              working on a common directory               *
           ************************************************************
------------------------------------------------------------------------------
                           ORCA GTO INTEGRAL CALCULATION
                           -- RI-GTO INTEGRALS CHOSEN --
------------------------------------------------------------------------------

                         BASIS SET STATISTICS AND STARTUP INFO

Gaussian basis set:
 # of primitive gaussian shells          ... 1013
 # of primitive gaussian functions       ... 2209
 # of contracted shells                  ...  570
 # of contracted basis functions         ... 1496
 Highest angular momentum                ...    3
 Maximum contraction depth               ...    7
Auxiliary gaussian basis set:
 # of primitive gaussian shells          ... 1227
 # of primitive gaussian functions       ... 3423
 # of contracted shells                  ...  767
 # of contracted aux-basis functions     ... 2389
 Highest angular momentum                ...    4
 Maximum contraction depth               ...    7
Ratio of auxiliary to basis functions    ...  1.60
Integral package used                  ... LIBINT
 One Electron integrals                  
   ECP integrals                         ... done
 Ordering auxiliary basis shells         ... done
 Integral threshhold             Thresh  ...  2.500e-11
 Primitive cut-off               TCut    ...  2.500e-12
 Pre-screening matrix                    ... done
 Shell pair data                         ... 
 Ordering of the shell pairs             ... done (   0.023 sec) 68895 of 162735 pairs
 Determination of significant pairs      ... done (   0.000 sec)
 Creation of shell pair data             ... done (   0.020 sec)
 Storage of shell pair data              ... done (   0.173 sec)
 Shell pair data done in (   0.217 sec)
 Computing two index integrals           ... done
 Cholesky decomposition of the V-matrix  ... done


Timings:
 Total evaluation time                   ...   9.653 sec (  0.161 min)
 One electron matrix time                ...   2.998 sec (  0.050 min) = 31.1%
 Schwartz matrix evaluation time         ...   4.077 sec (  0.068 min) = 42.2%
 Two index repulsion integral time       ...   1.264 sec (  0.021 min) = 13.1%
 Cholesky decomposition of V             ...   1.049 sec (  0.017 min) = 10.9%
 Three index repulsion integral time     ...   0.000 sec (  0.000 min) =  0.0%

--------------------------------------------------------------------------
[[39759,1],2]: A high-performance Open MPI point-to-point messaging module
was unable to find any relevant network interfaces:

Module: OpenFabrics (openib)
  Host: cx1-138-14-1

Another transport will be used instead, although this may result in
lower performance.
--------------------------------------------------------------------------


           ************************************************************
           *        Program running with 24 parallel MPI-processes    *
           *              working on a common directory               *
           ************************************************************
-------------------------------------------------------------------------------
                                 ORCA SCF
-------------------------------------------------------------------------------

------------
SCF SETTINGS
------------
Hamiltonian:
 Density Functional     Method          .... DFT(GTOs)
 Exchange Functional    Exchange        .... WB97X-D3
 Correlation Functional Correlation     .... WB97X-D3
 Gradients option       PostSCFGGA      .... off
 Hybrid DFT is turned on
   Fraction HF Exchange ScalHFX         ....  0.195728
   Scaling of DF-GGA-X  ScalDFX         ....  0.000000
   Scaling of DF-GGA-C  ScalDFC         ....  1.000000
   Scaling of DF-LDA-C  ScalLDAC        ....  1.000000
   Perturbative correction              ....  0.000000
 Long-range corrected/Screened/Range-Separated Hybrid DFT is turned on
   Amount of maximum screened exact exchange              ....  0.804272
   Range separation parameter mu (erf(mu*r12)/r12)        ....  0.250000
 RI-approximation to the Coulomb term is turned on
   Number of auxiliary basis functions  .... 2389
   RIJ-COSX (HFX calculated with COS-X)).... on


General Settings:
 Integral files         IntName         .... total
 Hartree-Fock type      HFTyp           .... RHF
 Total Charge           Charge          ....    0
 Multiplicity           Mult            ....    1
 Number of Electrons    NEL             ....  304
 Basis Dimension        Dim             .... 1496
 Nuclear Repulsion      ENuc            ....   4528.5515250770 Eh

Convergence Acceleration:
 DIIS                   CNVDIIS         .... on
   Start iteration      DIISMaxIt       ....    12
   Startup error        DIISStart       ....  0.200000
   # of expansion vecs  DIISMaxEq       ....     5
   Bias factor          DIISBfac        ....   1.050
   Max. coefficient     DIISMaxC        ....  10.000
 Newton-Raphson         CNVNR           .... off
 SOSCF                  CNVSOSCF        .... on
   Start iteration      SOSCFMaxIt      ....   150
   Startup grad/error   SOSCFStart      ....  0.003300
 Level Shifting         CNVShift        .... on
   Level shift para.    LevelShift      ....    0.2500
   Turn off err/grad.   ShiftErr        ....    0.0010
 Zerner damping         CNVZerner       .... off
 Static damping         CNVDamp         .... on
   Fraction old density DampFac         ....    0.7000
   Max. Damping (<1)    DampMax         ....    0.9800
   Min. Damping (>=0)   DampMin         ....    0.0000
   Turn off err/grad.   DampErr         ....    0.1000
 Fernandez-Rico         CNVRico         .... off

SCF Procedure:
 Maximum # iterations   MaxIter         ....   125
 SCF integral mode      SCFMode         .... Direct
   Integral package                     .... LIBINT
 Reset frequeny         DirectResetFreq ....    20
 Integral Threshold     Thresh          ....  2.500e-11 Eh
 Primitive CutOff       TCut            ....  2.500e-12 Eh

Convergence Tolerance:
 Convergence Check Mode ConvCheckMode   .... Total+1el-Energy
 Convergence forced     ConvForced      .... 1
 Energy Change          TolE            ....  1.000e-08 Eh
 1-El. energy change                    ....  1.000e-05 Eh
 Orbital Gradient       TolG            ....  1.000e-05
 Orbital Rotation angle TolX            ....  1.000e-05
 DIIS Error             TolErr          ....  5.000e-07


Diagonalization of the overlap matrix:
Smallest eigenvalue                        ... 5.894e-06
Time for diagonalization                   ...    0.706 sec
Threshold for overlap eigenvalues          ... 1.000e-08
Number of eigenvalues below threshold      ... 0
Time for construction of square roots      ...    0.687 sec
Total time needed                          ...    1.402 sec

-------------------
DFT GRID GENERATION
-------------------

General Integration Accuracy     IntAcc      ...  5.010
Radial Grid Type                 RadialGrid  ... Gauss-Chebyshev
Angular Grid (max. acc.)         AngularGrid ... Lebedev-434
Angular grid pruning method      GridPruning ... 3 (G Style)
Weight generation scheme         WeightScheme... Becke
Basis function cutoff            BFCut       ...    1.0000e-11
Integration weight cutoff        WCut        ...    1.0000e-14
Grids for H and He will be reduced by one unit

# of grid points (after initial pruning)     ... 612034 (   0.0 sec)
# of grid points (after weights+screening)   ... 531198 (   3.0 sec)
nearest neighbour list constructed           ...    0.0 sec
Grid point re-assignment to atoms done       ...    0.2 sec
Grid point division into batches done        ...    5.5 sec
Reduced shell lists constructed in    6.6 sec

Total number of grid points                  ...   531198
Total number of batches                      ...     8334
Average number of points per batch           ...       63
Average number of grid points per atom       ...     8172
Average number of shells per batch           ...   139.84 (24.53%)
Average number of basis functions per batch  ...   365.81 (24.45%)
Average number of large shells per batch     ...    97.96 (70.05%)
Average number of large basis fcns per batch ...   255.41 (69.82%)
Maximum spatial batch extension              ...  14.04, 17.70, 14.70 au
Average spatial batch extension              ...   0.06,  0.07,  0.06 au

Time for grid setup =   11.942 sec

------------------------------
INITIAL GUESS: MODEL POTENTIAL
------------------------------
Loading Hartree-Fock densities                     ... done
Calculating cut-offs                               ... done
Setting up the integral package                    ... done
Initializing the effective Hamiltonian             ... done
Starting the Coulomb interaction                   ... done (   0.9 sec)
Reading the grid                                   ... done
Mapping shells                                     ... done
Starting the XC term evaluation                    ... done (   3.4 sec)
  promolecular density results
     # of electrons  =    303.990021108
     EX              =   -264.244594694
     EC              =    -10.370975830
     EX+EC           =   -274.615570524
Transforming the Hamiltonian                       ... done (   0.4 sec)
Diagonalizing the Hamiltonian                      ... done (   0.7 sec)
Back transforming the eigenvectors                 ... done (   0.2 sec)
Now organizing SCF variables                       ... done
                      ------------------
                      INITIAL GUESS DONE (  17.9 sec)
                      ------------------
--------------------
COSX GRID GENERATION
--------------------

General Integration Accuracy     IntAcc      ...  3.340
Radial Grid Type                 RadialGrid  ... Gauss-Chebyshev
Angular Grid (max. acc.)         AngularGrid ... Lebedev-50
Angular grid pruning method      GridPruning ... 3 (G Style)
Weight generation scheme         WeightScheme... Becke
Basis function cutoff            BFCut       ...    1.0000e-11
Integration weight cutoff        WCut        ...    1.0000e-14
Grids for H and He will be reduced by one unit

# of grid points (after initial pruning)     ...  32296 (   0.0 sec)
# of grid points (after weights+screening)   ...  29249 (   0.2 sec)
nearest neighbour list constructed           ...    0.0 sec
Grid point re-assignment to atoms done       ...    0.0 sec
Grid point division into batches done        ...    0.0 sec
Reduced shell lists constructed in    0.1 sec

Total number of grid points                  ...    29249
Total number of batches                      ...      486
Average number of points per batch           ...       60
Average number of grid points per atom       ...      450
Average number of shells per batch           ...   155.91 (27.35%)
Average number of basis functions per batch  ...   412.73 (27.59%)
Average number of large shells per batch     ...   111.45 (71.49%)
Average number of large basis fcns per batch ...   294.36 (71.32%)
Maximum spatial batch extension              ...   9.70, 13.95, 13.59 au
Average spatial batch extension              ...   0.13,  0.20,  0.21 au

Overlap Fitting                  UseSFitting ... on
Constructing numerical overlap ... done (      0.2 sec)
Inverting numerical overlap    ... done (      0.3 sec)
Obtaining analytic overlap     ... done (      0.0 sec)
Final contraction and storage  ... done (      1.1 sec)


General Integration Accuracy     IntAcc      ...  3.670
Radial Grid Type                 RadialGrid  ... Gauss-Chebyshev
Angular Grid (max. acc.)         AngularGrid ... Lebedev-50
Angular grid pruning method      GridPruning ... 3 (G Style)
Weight generation scheme         WeightScheme... Becke
Basis function cutoff            BFCut       ...    1.0000e-11
Integration weight cutoff        WCut        ...    1.0000e-14
Grids for H and He will be reduced by one unit

# of grid points (after initial pruning)     ...  40432 (   0.0 sec)
# of grid points (after weights+screening)   ...  36463 (   0.2 sec)
nearest neighbour list constructed           ...    0.0 sec
Grid point re-assignment to atoms done       ...    0.0 sec
Grid point division into batches done        ...    0.0 sec
Reduced shell lists constructed in    0.1 sec

Total number of grid points                  ...    36463
Total number of batches                      ...      598
Average number of points per batch           ...       60
Average number of grid points per atom       ...      561
Average number of shells per batch           ...   151.50 (26.58%)
Average number of basis functions per batch  ...   400.12 (26.75%)
Average number of large shells per batch     ...   107.54 (70.98%)
Average number of large basis fcns per batch ...   283.00 (70.73%)
Maximum spatial batch extension              ...   8.31, 14.87, 12.80 au
Average spatial batch extension              ...   0.10,  0.17,  0.17 au

Overlap Fitting                  UseSFitting ... on
Constructing numerical overlap ... done (      0.2 sec)
Inverting numerical overlap    ... done (      0.2 sec)
Obtaining analytic overlap     ... done (      0.0 sec)
Final contraction and storage  ... done (      1.1 sec)


General Integration Accuracy     IntAcc      ...  4.010
Radial Grid Type                 RadialGrid  ... Gauss-Chebyshev
Angular Grid (max. acc.)         AngularGrid ... Lebedev-110
Angular grid pruning method      GridPruning ... 3 (G Style)
Weight generation scheme         WeightScheme... Becke
Basis function cutoff            BFCut       ...    1.0000e-11
Integration weight cutoff        WCut        ...    1.0000e-14
Grids for H and He will be reduced by one unit

# of grid points (after initial pruning)     ...  78692 (   0.0 sec)
# of grid points (after weights+screening)   ...  70354 (   0.4 sec)
nearest neighbour list constructed           ...    0.0 sec
Grid point re-assignment to atoms done       ...    0.0 sec
Grid point division into batches done        ...    0.1 sec
Reduced shell lists constructed in    0.3 sec

Total number of grid points                  ...    70354
Total number of batches                      ...     1129
Average number of points per batch           ...       62
Average number of grid points per atom       ...     1082
Average number of shells per batch           ...   150.96 (26.48%)
Average number of basis functions per batch  ...   398.96 (26.67%)
Average number of large shells per batch     ...   107.59 (71.27%)
Average number of large basis fcns per batch ...   283.55 (71.07%)
Maximum spatial batch extension              ...   8.08, 14.97, 13.19 au
Average spatial batch extension              ...   0.10,  0.14,  0.13 au

Overlap Fitting                  UseSFitting ... on
Constructing numerical overlap ... done (      0.4 sec)
Inverting numerical overlap    ... done (      0.2 sec)
Obtaining analytic overlap     ... done (      0.0 sec)
Final contraction and storage  ... done (      1.1 sec)

Time for X-Grid setup             =    6.864 sec
--------------
SCF ITERATIONS
--------------
ITER       Energy         Delta-E        Max-DP      RMS-DP      [F,P]     Damp
               ***  Starting incremental Fock matrix formation  ***
  0  -2206.0861777064   0.000000000000 0.16344754  0.00056756  0.1708805 0.7000
  1  -2206.3972082342  -0.311030527782 0.16784439  0.00048938  0.0976859 0.7000
                               ***Turning on DIIS***
  2  -2206.5618975193  -0.164689285033 0.32878604  0.00107925  0.0556052 0.0000
  3  -2206.8367529107  -0.274855391464 0.10262398  0.00029975  0.0465274 0.0000
  4  -2206.8749184181  -0.038165507375 0.02010217  0.00011379  0.0089049 0.0000
  5  -2206.8763576376  -0.001439219454 0.01082405  0.00004572  0.0057288 0.0000
                      *** Initiating the SOSCF procedure ***
                           *** Shutting down DIIS ***
                      *** Re-Reading the Fockian *** 
                      *** Removing any level shift *** 
ITER      Energy       Delta-E        Grad      Rot      Max-DP    RMS-DP
  6  -2206.87676693  -0.0004092926  0.002730  0.002730  0.004570  0.000025
               *** Restarting incremental Fock matrix formation ***
  7  -2206.87692280  -0.0001558728  0.001766  0.005349  0.014721  0.000124
  8  -2206.87699607  -0.0000732670  0.000645  0.005944  0.009951  0.000080
  9  -2206.87701624  -0.0000201669  0.000417  0.000698  0.008082  0.000066
 10  -2206.87702708  -0.0000108429  0.000109  0.000546  0.001360  0.000010
 11  -2206.87702785  -0.0000007739  0.000083  0.000201  0.000990  0.000008
 12  -2206.87702830  -0.0000004459  0.000020  0.000123  0.000225  0.000001
 13  -2206.87702827   0.0000000322  0.000013  0.000034  0.000306  0.000002
 14  -2206.87702836  -0.0000000883  0.000003  0.000015  0.000245  0.000002
 15  -2206.87702840  -0.0000000411  0.000003  0.000003  0.000142  0.000001
                  ***Gradient check signals convergence***
              ***Rediagonalizing the Fockian in SOSCF/NRSCF***

               *****************************************************
               *                     SUCCESS                       *
               *           SCF CONVERGED AFTER  16 CYCLES          *
               *****************************************************

Old exchange energy                            =    -85.113917691 Eh
New exchange energy                            =    -85.114122512 Eh
Exchange energy change after final integration =     -0.000204820 Eh
Total energy after final integration           =  -2206.877233172 Eh
Final COS-X integration done in                =    85.130 sec

----------------
TOTAL SCF ENERGY
----------------

Total Energy       :        -2206.87723317 Eh          -60052.18251 eV

Components:
Nuclear Repulsion  :         4528.55152508 Eh          123228.15180 eV
Electronic Energy  :        -6735.42875825 Eh         -183280.33430 eV
One Electron Energy:       -12013.41323807 Eh         -326901.59356 eV
Two Electron Energy:         5277.98447982 Eh          143621.25926 eV

Virial components:
Potential Energy   :        -4403.55494382 Eh         -119826.82190 eV
Kinetic Energy     :         2196.67771064 Eh           59774.63939 eV
Virial Ratio       :            2.00464316


DFT components:
N(Alpha)           :      152.000045975255 electrons
N(Beta)            :      152.000045975255 electrons
N(Total)           :      304.000091950510 electrons
E(XC)              :     -195.097765367295 Eh       

---------------
SCF CONVERGENCE
---------------

  Last Energy change         ...    4.5278e-08  Tolerance :   1.0000e-08
  Last MAX-Density change    ...    1.5118e-14  Tolerance :   1.0000e-07
  Last RMS-Density change    ...    9.3557e-17  Tolerance :   5.0000e-09
  Last Orbital Gradient      ...    7.7140e-07  Tolerance :   1.0000e-05
  Last Orbital Rotation      ...    4.0944e-06  Tolerance :   1.0000e-05

             **** THE GBW FILE WAS UPDATED (total.gbw) ****
             **** DENSITY FILE WAS UPDATED (total.scfp.tmp) ****
             **** ENERGY FILE WAS UPDATED (total.en.tmp) ****
----------------
ORBITAL ENERGIES
----------------

  NO   OCC          E(Eh)            E(eV) 
   0   2.0000     -89.008305     -2422.0391 
   1   2.0000     -19.339514      -526.2549 
   2   2.0000     -19.331057      -526.0248 
   3   2.0000     -14.482994      -394.1023 
   4   2.0000     -14.474281      -393.8652 
   5   2.0000     -14.473347      -393.8398 
   6   2.0000     -14.445552      -393.0835 
   7   2.0000     -14.440432      -392.9441 
   8   2.0000     -10.370058      -282.1836 
   9   2.0000     -10.369666      -282.1730 
  10   2.0000     -10.350267      -281.6451 
  11   2.0000     -10.348776      -281.6045 
  12   2.0000     -10.345537      -281.5164 
  13   2.0000     -10.340537      -281.3803 
  14   2.0000     -10.337422      -281.2956 
  15   2.0000     -10.336721      -281.2765 
  16   2.0000     -10.331869      -281.1444 
  17   2.0000     -10.331178      -281.1256 
  18   2.0000     -10.329325      -281.0752 
  19   2.0000     -10.327411      -281.0231 
  20   2.0000     -10.320921      -280.8465 
  21   2.0000     -10.306494      -280.4540 
  22   2.0000     -10.303292      -280.3668 
  23   2.0000     -10.302757      -280.3523 
  24   2.0000     -10.301122      -280.3078 
  25   2.0000     -10.299985      -280.2768 
  26   2.0000     -10.297564      -280.2110 
  27   2.0000     -10.297229      -280.2018 
  28   2.0000     -10.295256      -280.1482 
  29   2.0000     -10.293314      -280.0953 
  30   2.0000     -10.290183      -280.0101 
  31   2.0000     -10.288972      -279.9772 
  32   2.0000     -10.288498      -279.9643 
  33   2.0000     -10.287972      -279.9500 
  34   2.0000     -10.287055      -279.9250 
  35   2.0000     -10.287043      -279.9247 
  36   2.0000     -10.286963      -279.9225 
  37   2.0000     -10.286626      -279.9133 
  38   2.0000     -10.285068      -279.8709 
  39   2.0000     -10.283825      -279.8371 
  40   2.0000     -10.283276      -279.8222 
  41   2.0000     -10.282878      -279.8113 
  42   2.0000     -10.281810      -279.7823 
  43   2.0000     -10.275173      -279.6017 
  44   2.0000      -8.103680      -220.5123 
  45   2.0000      -6.056605      -164.8086 
  46   2.0000      -6.052612      -164.7000 
  47   2.0000      -6.051602      -164.6725 
  48   2.0000      -1.288584       -35.0641 
  49   2.0000      -1.278846       -34.7992 
  50   2.0000      -1.110622       -30.2216 
  51   2.0000      -1.100160       -29.9369 
  52   2.0000      -1.031804       -28.0768 
  53   2.0000      -1.017293       -27.6819 
  54   2.0000      -1.008125       -27.4325 
  55   2.0000      -0.987991       -26.8846 
  56   2.0000      -0.983235       -26.7552 
  57   2.0000      -0.974485       -26.5171 
  58   2.0000      -0.973372       -26.4868 
  59   2.0000      -0.967351       -26.3230 
  60   2.0000      -0.939658       -25.5694 
  61   2.0000      -0.918533       -24.9946 
  62   2.0000      -0.907540       -24.6954 
  63   2.0000      -0.905191       -24.6315 
  64   2.0000      -0.880699       -23.9650 
  65   2.0000      -0.875009       -23.8102 
  66   2.0000      -0.868107       -23.6224 
  67   2.0000      -0.862506       -23.4700 
  68   2.0000      -0.851540       -23.1716 
  69   2.0000      -0.848980       -23.1019 
  70   2.0000      -0.846177       -23.0256 
  71   2.0000      -0.843953       -22.9651 
  72   2.0000      -0.784088       -21.3361 
  73   2.0000      -0.779713       -21.2171 
  74   2.0000      -0.771248       -20.9867 
  75   2.0000      -0.764510       -20.8034 
  76   2.0000      -0.742574       -20.2065 
  77   2.0000      -0.735372       -20.0105 
  78   2.0000      -0.723875       -19.6976 
  79   2.0000      -0.721730       -19.6393 
  80   2.0000      -0.717975       -19.5371 
  81   2.0000      -0.714385       -19.4394 
  82   2.0000      -0.709869       -19.3165 
  83   2.0000      -0.702284       -19.1101 
  84   2.0000      -0.697589       -18.9824 
  85   2.0000      -0.690454       -18.7882 
  86   2.0000      -0.666426       -18.1344 
  87   2.0000      -0.655709       -17.8428 
  88   2.0000      -0.636660       -17.3244 
  89   2.0000      -0.632145       -17.2015 
  90   2.0000      -0.631141       -17.1742 
  91   2.0000      -0.619874       -16.8676 
  92   2.0000      -0.618442       -16.8287 
  93   2.0000      -0.610252       -16.6058 
  94   2.0000      -0.606945       -16.5158 
  95   2.0000      -0.598526       -16.2867 
  96   2.0000      -0.589072       -16.0295 
  97   2.0000      -0.585765       -15.9395 
  98   2.0000      -0.581186       -15.8149 
  99   2.0000      -0.567635       -15.4461 
 100   2.0000      -0.566373       -15.4118 
 101   2.0000      -0.564686       -15.3659 
 102   2.0000      -0.561125       -15.2690 
 103   2.0000      -0.555364       -15.1122 
 104   2.0000      -0.550895       -14.9906 
 105   2.0000      -0.548225       -14.9180 
 106   2.0000      -0.543837       -14.7986 
 107   2.0000      -0.540195       -14.6994 
 108   2.0000      -0.534796       -14.5525 
 109   2.0000      -0.533240       -14.5102 
 110   2.0000      -0.529788       -14.4163 
 111   2.0000      -0.526778       -14.3344 
 112   2.0000      -0.526046       -14.3144 
 113   2.0000      -0.523572       -14.2471 
 114   2.0000      -0.520267       -14.1572 
 115   2.0000      -0.519021       -14.1233 
 116   2.0000      -0.507419       -13.8076 
 117   2.0000      -0.501627       -13.6500 
 118   2.0000      -0.491089       -13.3632 
 119   2.0000      -0.488914       -13.3040 
 120   2.0000      -0.484407       -13.1814 
 121   2.0000      -0.476040       -12.9537 
 122   2.0000      -0.471747       -12.8369 
 123   2.0000      -0.470708       -12.8086 
 124   2.0000      -0.464871       -12.6498 
 125   2.0000      -0.462715       -12.5911 
 126   2.0000      -0.449447       -12.2301 
 127   2.0000      -0.448549       -12.2056 
 128   2.0000      -0.446665       -12.1544 
 129   2.0000      -0.444826       -12.1043 
 130   2.0000      -0.442042       -12.0286 
 131   2.0000      -0.440570       -11.9885 
 132   2.0000      -0.438301       -11.9268 
 133   2.0000      -0.434857       -11.8331 
 134   2.0000      -0.428942       -11.6721 
 135   2.0000      -0.420080       -11.4310 
 136   2.0000      -0.412205       -11.2167 
 137   2.0000      -0.407681       -11.0936 
 138   2.0000      -0.397603       -10.8193 
 139   2.0000      -0.394279       -10.7289 
 140   2.0000      -0.374190       -10.1822 
 141   2.0000      -0.366754        -9.9799 
 142   2.0000      -0.359521        -9.7831 
 143   2.0000      -0.347270        -9.4497 
 144   2.0000      -0.342726        -9.3260 
 145   2.0000      -0.342125        -9.3097 
 146   2.0000      -0.335755        -9.1364 
 147   2.0000      -0.335046        -9.1171 
 148   2.0000      -0.309111        -8.4113 
 149   2.0000      -0.303815        -8.2672 
 150   2.0000      -0.296116        -8.0577 
 151   2.0000      -0.292550        -7.9607 
 152   0.0000      -0.036365        -0.9896 
 153   0.0000      -0.001801        -0.0490 
 154   0.0000       0.017077         0.4647 
 155   0.0000       0.027351         0.7443 
 156   0.0000       0.047769         1.2999 
 157   0.0000       0.049821         1.3557 
 158   0.0000       0.050695         1.3795 
 159   0.0000       0.069871         1.9013 
 160   0.0000       0.076553         2.0831 
 161   0.0000       0.080751         2.1973 
 162   0.0000       0.086562         2.3555 
 163   0.0000       0.093155         2.5349 
 164   0.0000       0.101226         2.7545 
 165   0.0000       0.106414         2.8957 
 166   0.0000       0.114057         3.1036 
 167   0.0000       0.119608         3.2547 
 168   0.0000       0.127353         3.4654 
 169   0.0000       0.130820         3.5598 
 170   0.0000       0.136280         3.7084 
 171   0.0000       0.137678         3.7464 
 172   0.0000       0.140848         3.8327 
 173   0.0000       0.149013         4.0548 
 174   0.0000       0.149870         4.0782 
 175   0.0000       0.153648         4.1810 
 176   0.0000       0.158528         4.3138 
 177   0.0000       0.160772         4.3748 
 178   0.0000       0.162326         4.4171 
 179   0.0000       0.165463         4.5025 
 180   0.0000       0.169397         4.6095 
 181   0.0000       0.172552         4.6954 
 182   0.0000       0.175073         4.7640 
 183   0.0000       0.179296         4.8789 
 184   0.0000       0.180412         4.9093 
 185   0.0000       0.183815         5.0019 
 186   0.0000       0.187523         5.1028 
 187   0.0000       0.190411         5.1813 
 188   0.0000       0.192590         5.2406 
 189   0.0000       0.198958         5.4139 
 190   0.0000       0.200790         5.4638 
 191   0.0000       0.205727         5.5981 
 192   0.0000       0.206838         5.6283 
 193   0.0000       0.207948         5.6586 
 194   0.0000       0.209980         5.7139 
 195   0.0000       0.212989         5.7957 
 196   0.0000       0.213388         5.8066 
 197   0.0000       0.218392         5.9427 
 198   0.0000       0.226584         6.1657 
 199   0.0000       0.231931         6.3112 
 200   0.0000       0.233348         6.3497 
 201   0.0000       0.234426         6.3791 
 202   0.0000       0.238046         6.4776 
 203   0.0000       0.240878         6.5546 
 204   0.0000       0.245705         6.6860 
 205   0.0000       0.250776         6.8240 
 206   0.0000       0.252848         6.8803 
 207   0.0000       0.257923         7.0184 
 208   0.0000       0.258933         7.0459 
 209   0.0000       0.264836         7.2065 
 210   0.0000       0.268067         7.2945 
 211   0.0000       0.270665         7.3652 
 212   0.0000       0.272981         7.4282 
 213   0.0000       0.274358         7.4657 
 214   0.0000       0.276156         7.5146 
 215   0.0000       0.278420         7.5762 
 216   0.0000       0.280790         7.6407 
 217   0.0000       0.283744         7.7211 
 218   0.0000       0.284425         7.7396 
 219   0.0000       0.289525         7.8784 
 220   0.0000       0.290840         7.9142 
 221   0.0000       0.291706         7.9377 
 222   0.0000       0.293368         7.9830 
 223   0.0000       0.295880         8.0513 
 224   0.0000       0.296717         8.0741 
 225   0.0000       0.297603         8.0982 
 226   0.0000       0.301356         8.2003 
 227   0.0000       0.304043         8.2734 
 228   0.0000       0.306096         8.3293 
 229   0.0000       0.310299         8.4437 
 230   0.0000       0.312858         8.5133 
 231   0.0000       0.314584         8.5603 
 232   0.0000       0.318330         8.6622 
 233   0.0000       0.320358         8.7174 
 234   0.0000       0.320919         8.7326 
 235   0.0000       0.323910         8.8140 
 236   0.0000       0.328727         8.9451 
 237   0.0000       0.330882         9.0038 
 238   0.0000       0.332444         9.0463 
 239   0.0000       0.333703         9.0805 
 240   0.0000       0.335279         9.1234 
 241   0.0000       0.339020         9.2252 
 242   0.0000       0.340951         9.2778 
 243   0.0000       0.341954         9.3050 
 244   0.0000       0.343297         9.3416 
 245   0.0000       0.346557         9.4303 
 246   0.0000       0.350920         9.5490 
 247   0.0000       0.351850         9.5743 
 248   0.0000       0.352601         9.5948 
 249   0.0000       0.356903         9.7118 
 250   0.0000       0.358745         9.7619 
 251   0.0000       0.363675         9.8961 
 252   0.0000       0.365001         9.9322 
 253   0.0000       0.367548        10.0015 
 254   0.0000       0.369473        10.0539 
 255   0.0000       0.370601        10.0846 
 256   0.0000       0.376148        10.2355 
 257   0.0000       0.377097        10.2613 
 258   0.0000       0.381216        10.3734 
 259   0.0000       0.383110        10.4249 
 260   0.0000       0.384390        10.4598 
 261   0.0000       0.385945        10.5021 
 262   0.0000       0.390685        10.6311 
 263   0.0000       0.393521        10.7083 
 264   0.0000       0.395462        10.7611 
 265   0.0000       0.397481        10.8160 
 266   0.0000       0.399070        10.8592 
 267   0.0000       0.404382        11.0038 
 268   0.0000       0.406990        11.0748 
 269   0.0000       0.408024        11.1029 
 270   0.0000       0.409700        11.1485 
 271   0.0000       0.414776        11.2866 
 272   0.0000       0.416539        11.3346 
 273   0.0000       0.417439        11.3591 
 274   0.0000       0.421091        11.4585 
 275   0.0000       0.423601        11.5268 
 276   0.0000       0.424554        11.5527 
 277   0.0000       0.428526        11.6608 
 278   0.0000       0.429715        11.6931 
 279   0.0000       0.433220        11.7885 
 280   0.0000       0.433327        11.7914 
 281   0.0000       0.436582        11.8800 
 282   0.0000       0.437192        11.8966 
 283   0.0000       0.440956        11.9990 
 284   0.0000       0.444712        12.1012 
 285   0.0000       0.447999        12.1907 
 286   0.0000       0.450814        12.2673 
 287   0.0000       0.450901        12.2696 
 288   0.0000       0.454362        12.3638 
 289   0.0000       0.456481        12.4215 
 290   0.0000       0.458663        12.4809 
 291   0.0000       0.459348        12.4995 
 292   0.0000       0.460416        12.5286 
 293   0.0000       0.463691        12.6177 
 294   0.0000       0.466508        12.6943 
 295   0.0000       0.468768        12.7558 
 296   0.0000       0.469754        12.7826 
 297   0.0000       0.472385        12.8543 
 298   0.0000       0.474686        12.9169 
 299   0.0000       0.475788        12.9468 
 300   0.0000       0.478658        13.0249 
 301   0.0000       0.480480        13.0745 
 302   0.0000       0.482087        13.1183 
 303   0.0000       0.484410        13.1815 
 304   0.0000       0.487223        13.2580 
 305   0.0000       0.490387        13.3441 
 306   0.0000       0.492702        13.4071 
 307   0.0000       0.494988        13.4693 
 308   0.0000       0.498536        13.5658 
 309   0.0000       0.499300        13.5866 
 310   0.0000       0.500832        13.6283 
 311   0.0000       0.503712        13.7067 
 312   0.0000       0.504617        13.7313 
 313   0.0000       0.507509        13.8100 
 314   0.0000       0.509067        13.8524 
 315   0.0000       0.511591        13.9211 
 316   0.0000       0.512840        13.9551 
 317   0.0000       0.514144        13.9906 
 318   0.0000       0.517994        14.0953 
 319   0.0000       0.519446        14.1348 
 320   0.0000       0.524435        14.2706 
 321   0.0000       0.528208        14.3733 
 322   0.0000       0.531648        14.4669 
 323   0.0000       0.533262        14.5108 
 324   0.0000       0.535425        14.5697 
 325   0.0000       0.538328        14.6486 
 326   0.0000       0.540362        14.7040 
 327   0.0000       0.542973        14.7750 
 328   0.0000       0.545636        14.8475 
 329   0.0000       0.547172        14.8893 
 330   0.0000       0.550558        14.9814 
 331   0.0000       0.550823        14.9887 
 332   0.0000       0.554125        15.0785 
 333   0.0000       0.554739        15.0952 
 334   0.0000       0.556118        15.1327 
 335   0.0000       0.559949        15.2370 
 336   0.0000       0.563463        15.3326 
 337   0.0000       0.564156        15.3515 
 338   0.0000       0.570543        15.5253 
 339   0.0000       0.572049        15.5662 
 340   0.0000       0.573236        15.5986 
 341   0.0000       0.575850        15.6697 
 342   0.0000       0.576235        15.6802 
 343   0.0000       0.582212        15.8428 
 344   0.0000       0.582700        15.8561 
 345   0.0000       0.582998        15.8642 
 346   0.0000       0.589873        16.0513 
 347   0.0000       0.591296        16.0900 
 348   0.0000       0.594875        16.1874 
 349   0.0000       0.597810        16.2672 
 350   0.0000       0.598880        16.2964 
 351   0.0000       0.602289        16.3891 
 352   0.0000       0.606163        16.4945 
 353   0.0000       0.608000        16.5445 
 354   0.0000       0.612059        16.6550 
 355   0.0000       0.615190        16.7402 
 356   0.0000       0.615742        16.7552 
 357   0.0000       0.617094        16.7920 
 358   0.0000       0.627446        17.0737 
 359   0.0000       0.630618        17.1600 
 360   0.0000       0.635021        17.2798 
 361   0.0000       0.638627        17.3779 
 362   0.0000       0.641771        17.4635 
 363   0.0000       0.651691        17.7334 
 364   0.0000       0.652547        17.7567 
 365   0.0000       0.654332        17.8053 
 366   0.0000       0.661860        18.0101 
 367   0.0000       0.664859        18.0917 
 368   0.0000       0.665670        18.1138 
 369   0.0000       0.667466        18.1627 
 370   0.0000       0.672007        18.2862 
 371   0.0000       0.676979        18.4215 
 372   0.0000       0.679008        18.4767 
 373   0.0000       0.682170        18.5628 
 374   0.0000       0.683738        18.6055 
 375   0.0000       0.686331        18.6760 
 376   0.0000       0.692751        18.8507 
 377   0.0000       0.694442        18.8967 
 378   0.0000       0.696719        18.9587 
 379   0.0000       0.697124        18.9697 
 380   0.0000       0.700643        19.0655 
 381   0.0000       0.700873        19.0717 
 382   0.0000       0.706349        19.2207 
 383   0.0000       0.711110        19.3503 
 384   0.0000       0.712277        19.3820 
 385   0.0000       0.719313        19.5735 
 386   0.0000       0.720255        19.5991 
 387   0.0000       0.723397        19.6846 
 388   0.0000       0.726577        19.7712 
 389   0.0000       0.729177        19.8419 
 390   0.0000       0.732753        19.9392 
 391   0.0000       0.737660        20.0727 
 392   0.0000       0.739551        20.1242 
 393   0.0000       0.741862        20.1871 
 394   0.0000       0.742624        20.2078 
 395   0.0000       0.744219        20.2512 
 396   0.0000       0.745841        20.2954 
 397   0.0000       0.747700        20.3459 
 398   0.0000       0.752301        20.4711 
 399   0.0000       0.756051        20.5732 
 400   0.0000       0.760092        20.6832 
 401   0.0000       0.763476        20.7752 
 402   0.0000       0.765368        20.8267 
 403   0.0000       0.768901        20.9228 
 404   0.0000       0.771020        20.9805 
 405   0.0000       0.773448        21.0466 
 406   0.0000       0.776277        21.1236 
 407   0.0000       0.777345        21.1526 
 408   0.0000       0.781177        21.2569 
 409   0.0000       0.784032        21.3346 
 410   0.0000       0.787080        21.4175 
 411   0.0000       0.788228        21.4488 
 412   0.0000       0.792496        21.5649 
 413   0.0000       0.794638        21.6232 
 414   0.0000       0.797587        21.7034 
 415   0.0000       0.799047        21.7432 
 416   0.0000       0.799676        21.7603 
 417   0.0000       0.803709        21.8700 
 418   0.0000       0.804734        21.8979 
 419   0.0000       0.811241        22.0750 
 420   0.0000       0.811965        22.0947 
 421   0.0000       0.816283        22.2122 
 422   0.0000       0.820971        22.3398 
 423   0.0000       0.821882        22.3646 
 424   0.0000       0.823797        22.4167 
 425   0.0000       0.829416        22.5696 
 426   0.0000       0.831854        22.6359 
 427   0.0000       0.834944        22.7200 
 428   0.0000       0.837137        22.7797 
 429   0.0000       0.840855        22.8808 
 430   0.0000       0.842714        22.9314 
 431   0.0000       0.846481        23.0339 
 432   0.0000       0.848677        23.0937 
 433   0.0000       0.851135        23.1606 
 434   0.0000       0.854248        23.2453 
 435   0.0000       0.858801        23.3692 
 436   0.0000       0.863511        23.4973 
 437   0.0000       0.867578        23.6080 
 438   0.0000       0.874675        23.8011 
 439   0.0000       0.875151        23.8141 
 440   0.0000       0.878017        23.8920 
 441   0.0000       0.881388        23.9838 
 442   0.0000       0.888057        24.1653 
 443   0.0000       0.890090        24.2206 
 444   0.0000       0.897248        24.4153 
 445   0.0000       0.897841        24.4315 
 446   0.0000       0.902369        24.5547 
 447   0.0000       0.903471        24.5847 
 448   0.0000       0.908556        24.7231 
 449   0.0000       0.911318        24.7982 
 450   0.0000       0.914109        24.8742 
 451   0.0000       0.919016        25.0077 
 452   0.0000       0.921515        25.0757 
 453   0.0000       0.922903        25.1135 
 454   0.0000       0.930356        25.3163 
 455   0.0000       0.933379        25.3985 
 456   0.0000       0.934289        25.4233 
 457   0.0000       0.938037        25.5253 
 458   0.0000       0.939472        25.5643 
 459   0.0000       0.943836        25.6831 
 460   0.0000       0.947234        25.7755 
 461   0.0000       0.950429        25.8625 
 462   0.0000       0.954116        25.9628 
 463   0.0000       0.956526        26.0284 
 464   0.0000       0.959976        26.1223 
 465   0.0000       0.965309        26.2674 
 466   0.0000       0.969808        26.3898 
 467   0.0000       0.975082        26.5333 
 468   0.0000       0.980287        26.6750 
 469   0.0000       0.982676        26.7400 
 470   0.0000       0.986350        26.8400 
 471   0.0000       0.986663        26.8485 
 472   0.0000       0.993076        27.0230 
 473   0.0000       0.997596        27.1460 
 474   0.0000       0.999886        27.2083 
 475   0.0000       1.001332        27.2476 
 476   0.0000       1.004894        27.3446 
 477   0.0000       1.007959        27.4280 
 478   0.0000       1.011406        27.5218 
 479   0.0000       1.015373        27.6297 
 480   0.0000       1.015679        27.6380 
 481   0.0000       1.016260        27.6539 
 482   0.0000       1.022026        27.8108 
 483   0.0000       1.032313        28.0907 
 484   0.0000       1.035526        28.1781 
 485   0.0000       1.040248        28.3066 
 486   0.0000       1.046935        28.4885 
 487   0.0000       1.049802        28.5666 
 488   0.0000       1.055544        28.7228 
 489   0.0000       1.058840        28.8125 
 490   0.0000       1.063800        28.9475 
 491   0.0000       1.069062        29.0906 
 492   0.0000       1.070971        29.1426 
 493   0.0000       1.078760        29.3546 
 494   0.0000       1.082479        29.4558 
 495   0.0000       1.085125        29.5278 
 496   0.0000       1.089771        29.6542 
 497   0.0000       1.091405        29.6987 
 498   0.0000       1.097954        29.8769 
 499   0.0000       1.099459        29.9178 
 500   0.0000       1.102287        29.9947 
 501   0.0000       1.106542        30.1105 
 502   0.0000       1.114968        30.3398 
 503   0.0000       1.120719        30.4963 
 504   0.0000       1.124417        30.5969 
 505   0.0000       1.128753        30.7149 
 506   0.0000       1.131868        30.7997 
 507   0.0000       1.136724        30.9318 
 508   0.0000       1.137205        30.9449 
 509   0.0000       1.142575        31.0911 
 510   0.0000       1.149799        31.2876 
 511   0.0000       1.152003        31.3476 
 512   0.0000       1.161439        31.6044 
 513   0.0000       1.165605        31.7177 
 514   0.0000       1.168459        31.7954 
 515   0.0000       1.171769        31.8854 
 516   0.0000       1.176825        32.0230 
 517   0.0000       1.177649        32.0455 
 518   0.0000       1.186038        32.2737 
 519   0.0000       1.188599        32.3434 
 520   0.0000       1.192356        32.4457 
 521   0.0000       1.193947        32.4889 
 522   0.0000       1.201163        32.6853 
 523   0.0000       1.208090        32.8738 
 524   0.0000       1.212105        32.9831 
 525   0.0000       1.217397        33.1271 
 526   0.0000       1.221517        33.2392 
 527   0.0000       1.221789        33.2466 
 528   0.0000       1.228348        33.4250 
 529   0.0000       1.229085        33.4451 
 530   0.0000       1.233422        33.5631 
 531   0.0000       1.238936        33.7131 
 532   0.0000       1.239536        33.7295 
 533   0.0000       1.244339        33.8602 
 534   0.0000       1.246928        33.9306 
[...]
 211   9.018     137.5   0.001156   0.001172  -0.442548   0.531918     0.16 (  98-> 111)    0.12 (  98-> 109)    0.03 (  93-> 122)
 212   9.029     137.3   0.005085   0.005340  -3.874047  -3.257803     0.06 (  86-> 103)    0.05 (  93-> 122)    0.04 (  64-> 100)
 213   9.032     137.3   0.008335   0.006533  22.158199  18.374756     0.10 (  98-> 111)    0.04 (  98-> 109)    0.03 (  90-> 103)
 214   9.059     136.9   0.029077   0.026102   9.542411   9.668630     0.47 (  99-> 108)    0.07 (  99-> 110)    0.02 (  95-> 105)
 215   9.060     136.8   0.007217   0.005967  -12.373523  -12.273084     0.08 (  98-> 118)    0.06 (  98-> 131)    0.04 (  96-> 136)
 216   9.074     136.6   0.009896   0.008745  -25.817854  -22.370108     0.11 (  90-> 112)    0.10 (  91-> 112)    0.10 (  94-> 131)
 217   9.081     136.5   0.073058   0.064254   5.461079   5.673318     0.21 (  99-> 108)    0.03 (  95-> 121)    0.03 (  99-> 110)
 218   9.097     136.3   0.020713   0.019133  -22.449784  -21.288499     0.04 (  92-> 117)    0.04 (  92-> 119)    0.03 (  99-> 115)
 219   9.106     136.2   0.012951   0.010817  16.260355  15.266347     0.12 (  86-> 110)    0.09 (  85-> 110)    0.05 (  89-> 110)
 220   9.114     136.0   0.019703   0.017479  -0.201499  -1.366854     0.08 (  86-> 110)    0.07 (  91-> 110)    0.05 (  89-> 110)
 221   9.131     135.8   0.007734   0.006062  -39.116408  -36.725793     0.05 (  97-> 133)    0.04 (  86-> 110)    0.03 (  55-> 100)
 222   9.139     135.7   0.000965   0.000881  -5.912349  -4.094403     0.07 (  97-> 110)    0.06 (  97-> 107)    0.04 (  99-> 137)
 223   9.148     135.5   0.010044   0.007858  11.695992   9.524843     0.09 (  83-> 106)    0.08 (  86-> 110)    0.07 (  86-> 106)
 224   9.151     135.5   0.006668   0.005427  -9.624903  -7.094595     0.08 (  86-> 110)    0.03 (  98-> 136)    0.03 (  83-> 106)
 225   9.162     135.3   0.015239   0.013333   7.958352   7.412399     0.07 (  62-> 100)    0.04 (  83-> 106)    0.03 (  60-> 100)
 226   9.163     135.3   0.003486   0.003026   4.141371   4.214913     0.30 (  97-> 107)    0.11 (  97-> 110)    0.05 (  97-> 108)
 227   9.170     135.2   0.009986   0.009080   9.416333   7.832097     0.12 (  97-> 107)    0.04 (  62-> 100)    0.03 (  97-> 110)
 228   9.177     135.1   0.030355   0.026086  14.378023  12.239325     0.04 (  86-> 110)    0.03 (  94-> 131)    0.02 (  92-> 116)
 229   9.198     134.8   0.007549   0.007573  16.787721  17.514294     0.05 (  70-> 104)    0.04 (  82-> 109)    0.04 (  80-> 109)
 230   9.198     134.8   0.016959   0.016618  -6.629707  -7.235649     0.11 (  90-> 112)    0.02 (  98-> 111)    0.02 (  89-> 108)
 231   9.215     134.5   0.043672   0.041551  10.133341  10.329548     0.06 (  97-> 110)    0.05 (  89-> 112)    0.05 (  85-> 101)
 232   9.224     134.4   0.012037   0.010797  20.086271  18.524939     0.10 (  97-> 110)    0.06 (  97-> 107)    0.04 (  64-> 100)
 233   9.232     134.3   0.004828   0.004950  -20.338487  -19.873364     0.26 (  97-> 107)    0.22 (  97-> 110)    0.06 (  97-> 108)
 234   9.246     134.1   0.009296   0.008723   6.322685   7.250352     0.04 (  87-> 109)    0.03 (  75-> 104)    0.03 (  84-> 104)
 235   9.251     134.0   0.005725   0.004553  -8.332880  -6.543413     0.04 (  73-> 102)    0.04 (  83-> 103)    0.03 (  74-> 105)
 236   9.269     133.8   0.003215   0.003179  -7.000178  -7.322972     0.08 (  75-> 109)    0.05 (  96-> 134)    0.02 (  88-> 113)
 237   9.277     133.6   0.001245   0.000900  -1.103133  -0.095321     0.05 (  91-> 131)    0.03 (  90-> 131)    0.03 (  94-> 136)
 238   9.284     133.5   0.011177   0.009150  30.508005  26.217711     0.06 (  96-> 134)    0.06 (  85-> 101)    0.02 (  97-> 137)
 239   9.287     133.5   0.001178   0.000887  -4.287186  -4.125749     0.14 (  75-> 109)    0.06 (  71-> 104)    0.04 (  97-> 137)
 240   9.296     133.4   0.001132   0.001050   8.468763   8.068462     0.11 (  75-> 109)    0.06 (  85-> 101)    0.05 (  71-> 104)
 241   9.306     133.2   0.002585   0.002313  -9.398216  -9.674310     0.03 (  96-> 121)    0.03 (  55-> 100)    0.02 (  72-> 102)
 242   9.337     132.8   0.038577   0.034418  -44.736492  -43.524279     0.04 (  96-> 134)    0.04 (  93-> 123)    0.03 (  93-> 121)
 243   9.346     132.7   0.034299   0.030247  28.375035  25.974068     0.03 (  83-> 103)    0.03 (  93-> 123)    0.02 (  85-> 105)
 244   9.356     132.5   0.009743   0.008506   7.567146   7.097619     0.16 (  93-> 104)    0.12 (  94-> 104)    0.07 (  92-> 104)
 245   9.361     132.4   0.006555   0.006101  12.414308  11.664855     0.14 (  94-> 104)    0.10 (  93-> 104)    0.06 (  96-> 121)
 246   9.363     132.4   0.003084   0.002293  -3.672887  -2.917284     0.05 (  96-> 134)    0.03 (  97-> 108)    0.03 (  94-> 110)
 247   9.370     132.3   0.007511   0.006831  -22.559644  -21.379128     0.05 (  99-> 112)    0.05 (  94-> 110)    0.04 (  97-> 108)
 248   9.378     132.2   0.003522   0.002794  -38.205617  -32.584979     0.11 (  99-> 112)    0.07 (  94-> 110)    0.03 (  94-> 104)
 249   9.388     132.1   0.001259   0.001094  -4.817764  -4.538529     0.10 (  67-> 106)    0.05 (  72-> 107)    0.04 (  68-> 107)
 250   9.389     132.0   0.005271   0.004517  -2.312732  -1.572769     0.49 (  97-> 108)    0.16 (  97-> 110)    0.04 (  94-> 110)
 251   9.396     132.0   0.004986   0.004604  17.077769  15.428475     0.09 (  70-> 104)    0.03 (  82-> 111)    0.02 (  97-> 108)
 252   9.405     131.8   0.008214   0.008117  -3.300249  -3.235150     0.40 (  94-> 110)    0.02 (  95-> 107)    0.02 (  83-> 110)
 253   9.408     131.8   0.001137   0.001062  -1.513325   0.202296     0.12 (  94-> 104)    0.04 (  96-> 136)    0.04 (  96-> 135)
 254   9.411     131.7   0.013638   0.011763  -20.475096  -16.827751     0.16 (  94-> 104)    0.03 (  93-> 104)    0.03 (  92-> 104)
 255   9.417     131.7   0.004469   0.003649  -0.474249   0.993742     0.11 (  94-> 104)    0.09 (  70-> 104)    0.05 (  93-> 104)
 256   9.428     131.5   0.011726   0.010284  -8.071716  -6.906829     0.06 (  93-> 104)    0.04 (  92-> 104)    0.04 (  94-> 104)
 257   9.434     131.4   0.014664   0.012142  -43.714272  -36.931122     0.03 (  98-> 118)    0.02 (  93-> 123)    0.02 (  96-> 136)
 258   9.442     131.3   0.003265   0.002728   3.544279   3.440152     0.04 (  69-> 104)    0.04 (  87-> 111)    0.03 (  67-> 100)
 259   9.446     131.3   0.004475   0.003949  16.679004  15.563035     0.05 (  98-> 118)    0.04 (  98-> 141)    0.03 (  98-> 116)
 260   9.461     131.1   0.011089   0.008910  19.717142  17.707203     0.05 (  69-> 104)    0.04 (  87-> 109)    0.03 (  99-> 112)
 261   9.466     131.0   0.007192   0.007021  -6.373560  -6.651324     0.09 (  72-> 106)    0.03 (  72-> 105)    0.03 (  67-> 108)
 262   9.468     130.9   0.003615   0.003959   2.763607   2.747562     0.12 (  98-> 111)    0.08 (  98-> 114)    0.06 (  87-> 111)
 263   9.486     130.7   0.002040   0.001797   2.536118   2.642921     0.10 (  66-> 100)    0.06 (  64-> 100)    0.06 (  60-> 100)
 264   9.497     130.5   0.000555   0.000506  -1.441099  -1.378661     0.40 (  95-> 106)    0.14 (  92-> 106)    0.10 (  93-> 106)
 265   9.500     130.5   0.008076   0.007314   4.785769   5.833331     0.12 (  96-> 138)    0.04 (  98-> 139)    0.04 (  92-> 134)
 266   9.511     130.4   0.002012   0.001620   1.458631   1.289496     0.13 (  96-> 109)    0.07 (  91-> 110)    0.05 (  85-> 110)
 267   9.515     130.3   0.002704   0.002785  -1.526201  -1.920664     0.19 (  96-> 109)    0.04 (  95-> 117)    0.04 (  99-> 112)
 268   9.519     130.3   0.002489   0.002365   1.854300   1.963357     0.41 (  96-> 109)    0.03 (  91-> 110)    0.03 (  95-> 117)
 269   9.524     130.2   0.002578   0.002372  -18.797892  -18.069510     0.09 (  96-> 109)    0.04 (  91-> 110)    0.03 (  95-> 117)
 270   9.535     130.0   0.005699   0.004575   5.611767   4.582931     0.06 (  88-> 102)    0.04 (  88-> 103)    0.03 (  68-> 102)
 271   9.549     129.8   0.013285   0.011592  -19.805354  -18.476534     0.14 (  88-> 102)    0.11 (  88-> 103)    0.02 (  95-> 108)
 272   9.551     129.8   0.008450   0.007967   2.919581   3.250000     0.14 (  88-> 102)    0.11 (  88-> 103)    0.02 (  98-> 114)
 273   9.563     129.7   0.004456   0.004057   3.747443   3.539210     0.08 (  93-> 121)    0.04 (  81-> 102)    0.03 (  64-> 102)
 274   9.568     129.6   0.022584   0.020204  -27.919596  -25.462044     0.12 (  99-> 112)    0.09 (  98-> 114)    0.03 (  98-> 113)
 275   9.581     129.4   0.001870   0.001586  -12.060720  -11.389023     0.04 (  73-> 102)    0.03 (  74-> 102)    0.03 (  73-> 105)
 276   9.592     129.3   0.007880   0.006787  14.183981  13.004148     0.03 (  97-> 115)    0.03 (  99-> 112)    0.03 (  95-> 119)
 277   9.596     129.2   0.002730   0.002245  -3.882571  -3.554912     0.05 (  95-> 108)    0.03 (  92-> 108)    0.02 (  91-> 108)
 278   9.601     129.1   0.015792   0.013884  -19.882353  -18.088277     0.05 (  95-> 120)    0.03 (  95-> 108)    0.03 (  97-> 137)
 279   9.611     129.0   0.013447   0.010126  -30.944868  -26.569901     0.08 (  98-> 118)    0.05 (  98-> 119)    0.04 (  96-> 138)
 280   9.627     128.8   0.007675   0.006244  -5.315511  -5.303895     0.05 (  97-> 137)    0.03 (  99-> 147)    0.03 (  97-> 128)
 281   9.640     128.6   0.002457   0.002301   2.325483   1.507642     0.06 (  75-> 103)    0.06 (  75-> 102)    0.05 (  58-> 101)
 282   9.645     128.5   0.003373   0.003218  11.957352  11.550690     0.05 (  63-> 100)    0.04 (  80-> 100)    0.04 (  73-> 102)
 283   9.661     128.3   0.001327   0.000950   1.284966   1.404559     0.17 (  80-> 100)    0.10 (  82-> 100)    0.04 (  99-> 112)
 284   9.668     128.2   0.003251   0.003498   2.954077   2.918727     0.13 (  80-> 100)    0.07 (  82-> 100)    0.03 (  65-> 102)
 285   9.676     128.1   0.022046   0.019726  -51.839109  -48.411767     0.09 (  94-> 134)    0.05 (  91-> 138)    0.04 (  91-> 134)
 286   9.680     128.1   0.003161   0.002668  20.565905  17.743379     0.06 (  98-> 118)    0.03 (  94-> 134)    0.02 (  92-> 124)
 287   9.691     127.9   0.011219   0.009829  -25.945626  -23.923419     0.04 (  91-> 104)    0.03 (  99-> 147)    0.02 (  87-> 109)
 288   9.700     127.8   0.011025   0.011025  17.284796  17.912695     0.11 (  91-> 104)    0.03 (  92-> 104)    0.01 (  73-> 105)
 289   9.706     127.7   0.011351   0.010394  -13.040072  -11.849281     0.25 (  91-> 104)    0.06 (  92-> 104)    0.03 (  91-> 105)
 290   9.711     127.7   0.042216   0.037289  -7.022485  -5.304748     0.11 (  91-> 104)    0.07 (  86-> 115)    0.04 (  86-> 114)
 291   9.717     127.6   0.027109   0.023597  -14.458058  -12.344807     0.10 (  96-> 115)    0.08 (  96-> 114)    0.03 (  96-> 111)
 292   9.721     127.5   0.042282   0.037915  38.608741  33.268500     0.03 (  93-> 124)    0.02 (  97-> 112)    0.02 (  96-> 141)
 293   9.724     127.5   0.009220   0.009418  14.914921  14.586133     0.08 (  97-> 112)    0.05 (  87-> 109)    0.04 (  95-> 120)
 294   9.744     127.2   0.005318   0.005070  -5.993115  -4.753866     0.03 (  93-> 118)    0.03 (  86-> 115)    0.02 (  98-> 113)
 295   9.752     127.1   0.003486   0.002719  -14.238330  -11.657756     0.10 (  61-> 100)    0.05 (  61-> 102)    0.03 (  61-> 103)
 296   9.756     127.1   0.012475   0.010620  -4.364810  -5.221354     0.03 (  85-> 106)    0.03 (  98-> 113)    0.02 (  93-> 124)
 297   9.760     127.0   0.004855   0.004195  -3.513511  -3.326167     0.14 (  94-> 138)    0.04 (  91-> 134)    0.03 (  90-> 134)
 298   9.766     127.0   0.006063   0.005113  16.754788  14.624715     0.03 (  94-> 136)    0.02 (  94-> 135)    0.02 (  91-> 135)
 299   9.770     126.9   0.034462   0.030114   5.582299   5.420023     0.09 (  94-> 138)    0.06 (  94-> 135)    0.04 (  94-> 136)
 300   9.773     126.9   0.029676   0.026638  42.089890  40.511350     0.11 (  85-> 106)    0.04 (  83-> 108)    0.04 (  85-> 105)
 301   9.793     126.6   0.046783   0.041175  14.836751  13.920359     0.12 (  63-> 100)    0.03 (  68-> 102)    0.02 (  56-> 100)
 302   9.800     126.5   0.070643   0.062638  -80.445055  -75.896688     0.06 (  96-> 111)    0.06 (  97-> 112)    0.03 (  98-> 113)
 303   9.810     126.4   0.006527   0.005900  -0.771582  -0.745403     0.25 (  95-> 110)    0.05 (  92-> 110)    0.05 (  97-> 112)
 304   9.812     126.4   0.002449   0.002200  -4.251595  -3.313120     0.12 (  95-> 110)    0.10 (  97-> 112)    0.05 (  59-> 101)
 305   9.818     126.3   0.007906   0.006770  -6.290176  -5.647546     0.34 (  96-> 111)    0.09 (  97-> 112)    0.02 (  96-> 109)
 306   9.826     126.2   0.010371   0.009057  -12.959006  -11.785886     0.30 (  96-> 111)    0.04 (  96-> 115)    0.04 (  96-> 141)
 307   9.829     126.1   0.017127   0.013038  -16.021876  -12.963622     0.09 (  97-> 112)    0.04 (  87-> 111)    0.04 (  86-> 112)
 308   9.833     126.1   0.003498   0.003016   2.081889   2.942604     0.04 (  84-> 102)    0.04 (  88-> 114)    0.03 (  87-> 102)
 309   9.838     126.0   0.006960   0.006028   9.190340   6.416675     0.12 (  63-> 100)    0.04 (  83-> 112)    0.04 (  86-> 112)
 310   9.846     125.9   0.002380   0.001953   0.266351  -0.771951     0.06 (  95-> 127)    0.05 (  99-> 140)    0.05 (  95-> 126)
 311   9.853     125.8   0.025727   0.023299  16.335678  15.612768     0.15 (  98-> 113)    0.09 (  88-> 114)    0.05 (  87-> 111)
 312   9.858     125.8   0.011023   0.009058  19.663675  17.923408     0.05 (  83-> 110)    0.04 (  63-> 100)    0.02 (  90-> 116)
 313   9.863     125.7   0.011012   0.009909  -1.147505  -0.203417     0.14 (  76-> 100)    0.07 (  97-> 112)    0.06 (  77-> 100)
 314   9.872     125.6   0.000160   0.000094   0.486946   0.383481     0.18 (  98-> 113)    0.07 (  76-> 100)    0.05 (  98-> 114)
 315   9.878     125.5   0.013348   0.010678  -7.024539  -5.462332     0.10 (  76-> 100)    0.07 (  77-> 100)    0.04 (  83-> 110)
 316   9.885     125.4   0.003180   0.002754   0.230532   0.688205     0.04 (  76-> 100)    0.03 (  63-> 100)    0.02 (  78-> 103)
 317   9.898     125.3   0.012498   0.012328  31.649897  31.406932     0.06 (  76-> 100)    0.03 (  91-> 110)    0.03 (  97-> 112)
 318   9.905     125.2   0.023724   0.020463  47.813410  43.977002     0.05 (  98-> 113)    0.05 (  89-> 116)    0.05 (  91-> 110)
 319   9.906     125.2   0.011753   0.010008   6.635734   6.552455     0.33 (  90-> 110)    0.21 (  91-> 110)    0.04 (  93-> 110)
 320   9.922     125.0   0.007705   0.006932   5.440482   5.065599     0.09 (  83-> 110)    0.03 (  73-> 110)    0.03 (  84-> 110)
 321   9.924     124.9   0.040175   0.034302  -37.454804  -34.376620     0.07 (  83-> 110)    0.04 (  86-> 107)    0.03 (  95-> 112)
 322   9.938     124.8   0.000950   0.000491  -3.451099  -2.961191     0.04 (  86-> 108)    0.03 (  74-> 103)    0.02 (  69-> 104)
 323   9.945     124.7   0.007202   0.005957  -0.170134  -0.065464     0.03 (  69-> 104)    0.03 (  86-> 108)    0.03 (  83-> 110)
 324   9.957     124.5   0.029353   0.026840  -30.970542  -30.792480     0.09 (  75-> 100)    0.05 (  83-> 110)    0.02 (  84-> 110)
 325   9.964     124.4   0.003155   0.003449   3.730224   2.698578     0.07 (  75-> 100)    0.05 (  68-> 102)    0.02 (  81-> 101)
 326   9.971     124.3   0.005832   0.004969   7.310497   7.047034     0.61 (  75-> 100)    0.01 (  58-> 101)    0.01 (  84-> 115)
 327   9.982     124.2   0.031595   0.026453  -26.568803  -24.584507     0.02 (  93-> 124)    0.01 (  95-> 115)    0.01 (  98-> 144)
 328   9.990     124.1   0.001357   0.001110   0.286923   0.724320     0.02 (  73-> 103)    0.02 (  80-> 103)    0.02 (  69-> 104)
 329   9.999     124.0   0.044051   0.033094   4.189707   3.278953     0.05 (  73-> 110)    0.03 (  85-> 107)    0.02 (  96-> 139)

sTD-DFT done

Total run time:       66.375 sec

           *** ORCA-CIS/TD-DFT FINISHED WITHOUT ERROR ***


-------------------------------------------------------------------------------
                          DFT DISPERSION CORRECTION                            
                                                                               
                              DFTD3 V3.1  Rev 1                                
                              USING zero damping                               
-------------------------------------------------------------------------------
The omegaB97X-D3 functional is recognized. Fit by Chai et al.
Active option DFTDOPT                   ...         3   

molecular C6(AA) [au] = 64770.421456 


            DFT-D V3
 parameters
 s6 scaling factor         :     1.0000 
 rs6 scaling factor        :     1.2810 
 s8 scaling factor         :     1.0000 
 rs8 scaling factor        :     1.0940 
 Damping factor alpha6     :    14.0000 
 Damping factor alpha8     :    16.0000 
 ad hoc parameters k1-k3   :    16.0000     1.3333    -4.0000 

 Edisp/kcal,au: -19.970403156147  -0.031824859785 
 E6   /kcal   :  -9.623857075 
 E8   /kcal   : -10.346546082 
 % E8         :  51.809400144 

-------------------------   ----------------
Dispersion correction           -0.031824860
-------------------------   ----------------


-------------------------   --------------------
FINAL SINGLE POINT ENERGY     -2206.909058037391
-------------------------   --------------------


                            ***************************************
                            *     ORCA property calculations      *
                            ***************************************

                                    ---------------------
                                    Active property flags
                                    ---------------------
   (+) Dipole Moment
   (+) Quadrupole Moment


------------------------------------------------------------------------------
                       ORCA ELECTRIC PROPERTIES CALCULATION
------------------------------------------------------------------------------

Dipole Moment Calculation                       ... on
Quadrupole Moment Calculation                   ... on
Polarizability Calculation                      ... off
GBWName                                         ... total_job2.gbw
Electron density file                           ... total_job2.scfp.tmp

-------------
DIPOLE MOMENT
-------------
                                X             Y             Z
Electronic contribution:     10.14914       4.77556      10.67491
Nuclear contribution   :     -8.85002      -4.51744      -9.35166
                        -----------------------------------------
Total Dipole Moment    :      1.29912       0.25812       1.32325
                        -----------------------------------------
Magnitude (a.u.)       :      1.87225
Magnitude (Debye)      :      4.75889


------------------------
QUADRUPOLE MOMENT (A.U.)
------------------------

                XX           YY           ZZ           XY           XZ           YZ
  NUC     43168.04053   1028.21327   4657.70116    671.04350  -3615.16735   1180.09966
  EL     -43286.09857  -1218.69750  -4838.35022   -667.66590   3624.06088  -1168.48504
  TOT      -118.05804   -190.48423   -180.64906      3.37761      8.89353     11.61462

--------------------------------------------------------------------------
[[38880,1],2]: A high-performance Open MPI point-to-point messaging module
was unable to find any relevant network interfaces:

Module: OpenFabrics (openib)
  Host: cx1-138-14-1

Another transport will be used instead, although this may result in
lower performance.
--------------------------------------------------------------------------

Timings for individual modules:

Sum of individual times         ...      324.643 sec (=   5.411 min)
GTO integral calculation        ...       10.233 sec (=   0.171 min)   3.2 %
SCF iterations                  ...      247.353 sec (=   4.123 min)  76.2 %
CIS module                      ...       67.057 sec (=   1.118 min)  20.7 %



                             ****ORCA TERMINATED NORMALLY****
TOTAL RUN TIME: 0 days 0 hours 21 minutes 36 seconds 101 msec
