   45
Geometry Step: 831
    C     -5.14008605     -0.98425102      2.43525715      4.11528826
    C     -4.37097844     -0.59679793      1.34112209      4.08014453
    C     -5.01729767     -0.14151938      0.17600913      4.03028533
    C     -6.43945282     -0.08591973      0.16905921      3.86728274
    C     -7.21710638     -0.48241831      1.26783933      4.16515405
    C     -6.54483498     -0.93353162      2.40075624      4.06738403
    C     -4.57683523      0.35860792     -1.11708219      4.04209538
    C     -5.76345333      0.70767425     -1.82832765      3.86855532
    N     -6.86628951      0.41733051     -1.04736480      5.17488315
    C     -5.75031362      1.27661609     -3.11023623      4.16008264
    C     -4.50692077      1.51804751     -3.69075125      4.07270892
    C     -3.32409797      1.18866720     -3.01754560      4.13566972
    C     -3.32040791      0.59277032     -1.74141400      3.97700368
    H     -2.37249109      1.37721304     -3.50937713      0.91532442
    H     -7.83004862      0.58112513     -1.31138795      0.78436604
    H     -4.44995563      1.96421487     -4.67940780      0.91676985
    H     -3.28743122     -0.65084483      1.39074877      0.89642084
    H     -8.30224578     -0.43361037      1.23552933      0.91833374
    H     -7.11322451     -1.24892470      3.27172847      0.92204167
    H     -4.64601261     -1.33740345      3.33625237      0.91947118
    S      2.52425073     -1.11615045      0.88743668      6.00439314
    C      1.71154434     -0.00860391     -0.22005426      3.83503725
    N      2.53338406      0.85977606     -0.80413526      5.18381245
    N      3.83446615      0.71099566     -0.42374091      5.15661015
    C      4.02012389     -0.26778169      0.45125316      3.84106354
    C      0.28766960     -0.04489350     -0.46493837      3.83567813
    N     -0.53801727     -0.91060948      0.10861251      5.18047544
    N     -1.83987149     -0.75283322     -0.27662709      5.18394205
    C     -2.03192195      0.23298956     -1.14083942      3.80696706
    S     -0.52126382      1.07142708     -1.57257503      6.03722440
    C      5.28595386     -0.68278143      1.05314823      3.83757760
    N      5.20134898     -1.71025175      1.91788077      5.30455800
    C      6.32880502     -2.16594099      2.52773103      3.90583397
    C      7.58492235     -1.62689516      2.30955364      4.16502402
    C      7.71966037     -0.54129435      1.40474948      3.81648273
    C      6.54530667     -0.05078323      0.75586307      3.89024297
    N      8.95270930      0.02032764      1.16274901      5.27383797
    C      8.98467685      1.03005462      0.30299645      3.91379209
    C      7.81392463      1.51958385     -0.34439701      3.93152793
    N      6.61355026      0.99578117     -0.12845169      5.24280619
    H      6.19987069     -3.00301145      3.22049842      0.93445148
    H      9.95899963      1.49039385      0.09757220      0.93870816
    H      7.88285191      2.35662904     -1.04890664      0.93518844
    H     -6.67376426      1.52832076     -3.62406270      0.91475461
    H      8.46020363     -2.02169419      2.81817624      0.90074474
