
                                 *****************
                                 * O   R   C   A *
                                 *****************

           --- An Ab Initio, DFT and Semiempirical electronic structure package ---

                  #######################################################
                  #                        -***-                        #
                  #  Department of molecular theory and spectroscopy    #
                  #              Directorship: Frank Neese              #
                  # Max Planck Institute for Chemical Energy Conversion #
                  #                  D-45470 Muelheim/Ruhr              #
                  #                       Germany                       #
                  #                                                     #
                  #                  All rights reserved                #
                  #                        -***-                        #
                  #######################################################


                         Program Version 4.0.0 -  RELEASE  -


 With contributions from (in alphabetic order):
   Daniel Aravena         : Magnetic Properties
   Michael Atanasov       : Ab Initio Ligand Field Theory
   Ute Becker             : Parallelization
   Martin Brehm           : Molecular dynamics
   Dmytro Bykov           : SCF Hessian
   Vijay G. Chilkuri      : MRCI spin determinant printing
   Dipayan Datta          : RHF DLPNO-CCSD density
   Achintya Kumar Dutta   : EOM-CC, STEOM-CC
   Dmitry Ganyushin       : Spin-Orbit,Spin-Spin,Magnetic field MRCI
   Yang Guo               : DLPNO-NEVPT2, CIM, IAO-localization
   Andreas Hansen         : Spin unrestricted coupled pair/coupled cluster methods
   Lee Huntington         : MR-EOM, pCC
   Robert Izsak           : Overlap fitted RIJCOSX, COSX-SCS-MP3, EOM
   Christian Kollmar      : KDIIS, OOCD, Brueckner-CCSD(T), CCSD density
   Simone Kossmann        : Meta GGA functionals, TD-DFT gradient, OOMP2, MP2 Hessian
   Martin Krupicka        : AUTO-CI
   Dagmar Lenk            : GEPOL surface
   Dimitrios Liakos       : Extrapolation schemes; parallel MDCI
   Dimitrios Manganas     : ROCIS; embedding schemes
   Dimitrios Pantazis     : SARC Basis sets
   Taras Petrenko         : DFT Hessian,TD-DFT gradient, ASA, ECA, R-Raman, ABS, FL, XAS/XES, NRVS
   Peter Pinski           : DLPNO-MP2
   Christoph Reimann      : Effective Core Potentials
   Marius Retegan         : Local ZFS, SOC
   Christoph Riplinger    : Optimizer, TS searches, QM/MM, DLPNO-CCSD(T), (RO)-DLPNO pert. Triples
   Tobias Risthaus        : Range-separated hybrids, TD-DFT gradient, RPA, STAB
   Michael Roemelt        : Restricted open shell CIS
   Masaaki Saitow         : Open-shell DLPNO
   Barbara Sandhoefer     : DKH picture change effects
   Kantharuban Sivalingam : CASSCF convergence, NEVPT2, FIC-MRCI
   Georgi Stoychev        : AutoAux
   Boris Wezisla          : Elementary symmetry handling
   Frank Wennmohs         : Technical directorship


 We gratefully acknowledge several colleagues who have allowed us to
 interface, adapt or use parts of their codes:
   Stefan Grimme, W. Hujo, H. Kruse,             : VdW corrections, initial TS optimization,
                  C. Bannwarth                     DFT functionals, gCP, sTDA/sTD-DF
   Ed Valeev                                     : LibInt (2-el integral package), F12 methods
   Garnet Chan, S. Sharma, J. Yang, R. Olivares  : DMRG
   Ulf Ekstrom                                   : XCFun DFT Library
   Mihaly Kallay                                 : mrcc  (arbitrary order and MRCC methods)
   Jiri Pittner, Ondrej Demel                    : Mk-CCSD
   Frank Weinhold                                : gennbo (NPA and NBO analysis)
   Christopher J. Cramer and Donald G. Truhlar   : smd solvation model


 Your calculation uses the libint2 library for the computation of 2-el integrals
 For citations please refer to: http://libint.valeyev.net

 This ORCA versions uses:
   CBLAS   interface :  Fast vector & matrix operations
   LAPACKE interface :  Fast linear algebra routines
   SCALAPACK package :  Parallel linear algebra routines


Your calculation utilizes the atom-pairwise dispersion correction
with the zero-damping scheme (D30)
Cite in your paper:
S.Grimme, J.Antony, S.Ehrlich and H.Krieg, J.Chem.Phys., 132, (2010), 154104 
   

XCFun DFT library Copyright 2009-2010 Ulf Ekstrom and contributors.
See http://admol.org/xcfun for more information. This is free soft-
ware; see the source code for copying conditions. There is ABSOLUTELY
NO WARRANTY; not even for MERCHANTABILITY or FITNESS FOR A PARTICULAR
PURPOSE. For details see the documentation. Scientific users of this 
library should cite U. Ekstrom, L. Visscher, R. Bast, A. J. Thorvald-
sen and K. Ruud; J.Chem.Theor.Comp. 2010, DOI: 10.1021/ct100117s
XCFun Version 0.99 
Your calculation utilizes the basis: def2-TZVP
   F. Weigend and R. Ahlrichs, Phys. Chem. Chem. Phys. 7, 3297 (2005).

Your calculation utilizes the auxiliary basis: def2/J
   F. Weigend, Phys. Chem. Chem. Phys. 8, 1057 (2006).

================================================================================
                                        WARNINGS
                       Please study these warnings very carefully!
================================================================================

Warning: TCutStore was < 0. Adjusted to Thresh (uncritical)
INFO   : Checking CIS options ...

WARNING: CIS/ROCIS methods need fully converged wavefunctions
  ===> : Setting SCFConvForced true
         You can overwrite this default with %scf ConvForced false 


INFO   : the flag for use of LIBINT has been found!

Your calculation utilizes the atom-pairwise dispersion correction
with the zero-damping scheme (D30)
Cite in your paper:
S.Grimme, J.Antony, S.Ehrlich and H.Krieg, J.Chem.Phys., 132, (2010), 154104 
   

XCFun DFT library Copyright 2009-2010 Ulf Ekstrom and contributors.
See http://admol.org/xcfun for more information. This is free soft-
ware; see the source code for copying conditions. There is ABSOLUTELY
NO WARRANTY; not even for MERCHANTABILITY or FITNESS FOR A PARTICULAR
PURPOSE. For details see the documentation. Scientific users of this 
library should cite U. Ekstrom, L. Visscher, R. Bast, A. J. Thorvald-
sen and K. Ruud; J.Chem.Theor.Comp. 2010, DOI: 10.1021/ct100117s
XCFun Version 0.99 
Your calculation utilizes the basis: def2-TZVP
   F. Weigend and R. Ahlrichs, Phys. Chem. Chem. Phys. 7, 3297 (2005).

Your calculation utilizes the auxiliary basis: def2/J
   F. Weigend, Phys. Chem. Chem. Phys. 8, 1057 (2006).

================================================================================
                                        WARNINGS
                       Please study these warnings very carefully!
================================================================================

INFO   : Checking CIS options ...

INFO   : the flag for use of LIBINT has been found!

================================================================================
                                       INPUT FILE
================================================================================
NAME = total.inp
|  1> # 
|  2> !wB97X-D3 def2-TZVP def2/J RIJCOSX Grid5 FinalGrid6 TightSCF
|  3> %pal 
|  4>  nprocs 24
|  5> end
|  6> %tddft
|  7>   Mode sTDDFT
|  8>   nroots 2
|  9>   Ethresh 10.0
| 10>   maxcore 5000
| 11>   triplets true
| 12> end
| 13> * xyz 0 1 
| 14> C -4.79736039 0.62461953 -2.68121362
| 15> C -4.05987663 0.29105469 -1.54819057
| 16> C -4.74024677 -0.06883701 -0.36922968
| 17> C -6.16343797 -0.06657600 -0.38185345
| 18> C -6.90900059 0.26235191 -1.52430158
| 19> C -6.20329680 0.60693788 -2.67420824
| 20> C -4.33845953 -0.44183314 0.97829468
| 21> C -5.54807640 -0.62628382 1.71208830
| 22> N -6.62723481 -0.41381972 0.87492631
| 23> C -5.57605422 -0.94936701 3.07666296
| 24> C -4.35177149 -1.07569451 3.72969186
| 25> C -3.14725316 -0.89869008 3.03781475
| 26> C -3.10141821 -0.59995855 1.66227737
| 27> H -2.21108186 -1.02097098 3.57784310
| 28> H -7.60048063 -0.46903931 1.14896595
| 29> H -4.32680335 -1.31776464 4.78826233
| 30> H -2.97444343 0.30658379 -1.58087510
| 31> H -7.99557068 0.25283048 -1.50859653
| 32> H -6.74625795 0.86806944 -3.57872640
| 33> H -4.27690677 0.90194537 -3.59382403
| 34> S 2.83931903 -0.21108455 -1.25787943
| 35> C 4.30057192 0.24036757 -0.35628016
| 36> N 4.06404921 0.48536651 0.92541941
| 37> N 2.75292914 0.34008411 1.28189398
| 38> C 1.97134604 -0.01935000 0.27132118
| 39> C 0.54730024 -0.23562888 0.39298583
| 40> N -0.23179655 -0.59961092 -0.61683848
| 41> N -1.54481448 -0.74321072 -0.26241567
| 42> C -1.79093654 -0.48757301 1.01360470
| 43> S -0.32360958 -0.04035651 1.91978144
| 44> C 8.21354573 0.52387075 -2.09644739
| 45> C 8.00946022 0.79268034 -0.73273862
| 46> C 6.72971884 0.70033983 -0.16193410
| 47> C 5.62961425 0.33287290 -0.96419771
| 48> C 5.82276712 0.06166600 -2.33026725
| 49> C 7.10887545 0.15868953 -2.88500535
| 50> O 9.07281536 1.14525943 0.03101988
| 51> O 7.27174715 -0.10730104 -4.20448680
| 52> H 4.98634145 -0.22243949 -2.96108365
| 53> H 8.79700568 1.30126405 0.94378226
| 54> H 8.19772894 -0.00563096 -4.46015940
| 55> H 6.57899570 0.90952584 0.89304824
| 56> H -6.51603799 -1.08469820 3.60416139
| 57> H 9.20819530 0.59903909 -2.52479273
| 58> *
| 59> $new_job
| 60> # 
| 61> !wB97X-D3 def2-TZVP def2/J RIJCOSX Grid5 FinalGrid6 TightSCF
| 62> %pal 
| 63>  nprocs 24
| 64> end
| 65> %elprop
| 66>    dipole     true
| 67>    quadrupole true
| 68> end
| 69> %tddft
| 70>   Mode sTDDFT
| 71>   nroots 2
| 72>   Ethresh 10.0
| 73>   maxcore 5000
| 74> end
| 75> * xyz 0 1 
| 76> C -4.79736039 0.62461953 -2.68121362
| 77> C -4.05987663 0.29105469 -1.54819057
| 78> C -4.74024677 -0.06883701 -0.36922968
| 79> C -6.16343797 -0.06657600 -0.38185345
| 80> C -6.90900059 0.26235191 -1.52430158
| 81> C -6.20329680 0.60693788 -2.67420824
| 82> C -4.33845953 -0.44183314 0.97829468
| 83> C -5.54807640 -0.62628382 1.71208830
| 84> N -6.62723481 -0.41381972 0.87492631
| 85> C -5.57605422 -0.94936701 3.07666296
| 86> C -4.35177149 -1.07569451 3.72969186
| 87> C -3.14725316 -0.89869008 3.03781475
| 88> C -3.10141821 -0.59995855 1.66227737
| 89> H -2.21108186 -1.02097098 3.57784310
| 90> H -7.60048063 -0.46903931 1.14896595
| 91> H -4.32680335 -1.31776464 4.78826233
| 92> H -2.97444343 0.30658379 -1.58087510
| 93> H -7.99557068 0.25283048 -1.50859653
| 94> H -6.74625795 0.86806944 -3.57872640
| 95> H -4.27690677 0.90194537 -3.59382403
| 96> S 2.83931903 -0.21108455 -1.25787943
| 97> C 4.30057192 0.24036757 -0.35628016
| 98> N 4.06404921 0.48536651 0.92541941
| 99> N 2.75292914 0.34008411 1.28189398
|100> C 1.97134604 -0.01935000 0.27132118
|101> C 0.54730024 -0.23562888 0.39298583
|102> N -0.23179655 -0.59961092 -0.61683848
|103> N -1.54481448 -0.74321072 -0.26241567
|104> C -1.79093654 -0.48757301 1.01360470
|105> S -0.32360958 -0.04035651 1.91978144
|106> C 8.21354573 0.52387075 -2.09644739
|107> C 8.00946022 0.79268034 -0.73273862
|108> C 6.72971884 0.70033983 -0.16193410
|109> C 5.62961425 0.33287290 -0.96419771
|110> C 5.82276712 0.06166600 -2.33026725
|111> C 7.10887545 0.15868953 -2.88500535
|112> O 9.07281536 1.14525943 0.03101988
|113> O 7.27174715 -0.10730104 -4.20448680
|114> H 4.98634145 -0.22243949 -2.96108365
|115> H 8.79700568 1.30126405 0.94378226
|116> H 8.19772894 -0.00563096 -4.46015940
|117> H 6.57899570 0.90952584 0.89304824
|118> H -6.51603799 -1.08469820 3.60416139
|119> H 9.20819530 0.59903909 -2.52479273
|120> *
|121> 
|122>                          ****END OF INPUT****
================================================================================


                 $$$$$$$$$$$$$$$$$$$$$$$$$$$$$$$$$$$$$$$$$$$$$$ 
                 $ THERE ARE  2 JOBS TO BE PROCESSED THIS RUN $
                 $$$$$$$$$$$$$$$$$$$$$$$$$$$$$$$$$$$$$$$$$$$$$$ 




                 $$$$$$$$$$$$$$$$  JOB NUMBER  1 $$$$$$$$$$$$$$


                       ****************************
                       * Single Point Calculation *
                       ****************************

---------------------------------
CARTESIAN COORDINATES (ANGSTROEM)
---------------------------------
  C     -4.797360    0.624620   -2.681214
  C     -4.059877    0.291055   -1.548191
  C     -4.740247   -0.068837   -0.369230
  C     -6.163438   -0.066576   -0.381853
  C     -6.909001    0.262352   -1.524302
  C     -6.203297    0.606938   -2.674208
  C     -4.338460   -0.441833    0.978295
  C     -5.548076   -0.626284    1.712088
  N     -6.627235   -0.413820    0.874926
  C     -5.576054   -0.949367    3.076663
  C     -4.351771   -1.075695    3.729692
  C     -3.147253   -0.898690    3.037815
  C     -3.101418   -0.599959    1.662277
  H     -2.211082   -1.020971    3.577843
  H     -7.600481   -0.469039    1.148966
  H     -4.326803   -1.317765    4.788262
  H     -2.974443    0.306584   -1.580875
  H     -7.995571    0.252830   -1.508597
  H     -6.746258    0.868069   -3.578726
  H     -4.276907    0.901945   -3.593824
  S      2.839319   -0.211085   -1.257879
  C      4.300572    0.240368   -0.356280
  N      4.064049    0.485367    0.925419
  N      2.752929    0.340084    1.281894
  C      1.971346   -0.019350    0.271321
  C      0.547300   -0.235629    0.392986
  N     -0.231797   -0.599611   -0.616838
  N     -1.544814   -0.743211   -0.262416
  C     -1.790937   -0.487573    1.013605
  S     -0.323610   -0.040357    1.919781
  C      8.213546    0.523871   -2.096447
  C      8.009460    0.792680   -0.732739
  C      6.729719    0.700340   -0.161934
  C      5.629614    0.332873   -0.964198
  C      5.822767    0.061666   -2.330267
  C      7.108875    0.158690   -2.885005
  O      9.072815    1.145259    0.031020
  O      7.271747   -0.107301   -4.204487
  H      4.986341   -0.222439   -2.961084
  H      8.797006    1.301264    0.943782
  H      8.197729   -0.005631   -4.460159
  H      6.578996    0.909526    0.893048
  H     -6.516038   -1.084698    3.604161
  H      9.208195    0.599039   -2.524793

----------------------------
CARTESIAN COORDINATES (A.U.)
----------------------------
  NO LB      ZA    FRAG     MASS         X           Y           Z
   0 C     6.0000    0    12.011   -9.065697    1.180360   -5.066759
   1 C     6.0000    0    12.011   -7.672055    0.550014   -2.925656
   2 C     6.0000    0    12.011   -8.957768   -0.130083   -0.697743
   3 C     6.0000    0    12.011  -11.647210   -0.125810   -0.721598
   4 C     6.0000    0    12.011  -13.056119    0.495773   -2.880513
   5 C     6.0000    0    12.011  -11.722532    1.146946   -5.053521
   6 C     6.0000    0    12.011   -8.198500   -0.834944    1.848709
   7 C     6.0000    0    12.011  -10.484345   -1.183505    3.235378
   8 N     7.0000    0    14.007  -12.523659   -0.782006    1.653371
   9 C     6.0000    0    12.011  -10.537215   -1.794044    5.814050
  10 C     6.0000    0    12.011   -8.223656   -2.032768    7.048096
  11 C     6.0000    0    12.011   -5.947447   -1.698278    5.740638
  12 C     6.0000    0    12.011   -5.860831   -1.133757    3.141249
  13 H     1.0000    0     1.008   -4.178339   -1.929356    6.761144
  14 H     1.0000    0     1.008  -14.362827   -0.886356    2.171231
  15 H     1.0000    0     1.008   -8.176473   -2.490214    9.048504
  16 H     1.0000    0     1.008   -5.620883    0.579359   -2.987421
  17 H     1.0000    0     1.008  -15.109439    0.477780   -2.850834
  18 H     1.0000    0     1.008  -12.748580    1.640414   -6.762813
  19 H     1.0000    0     1.008   -8.082182    1.704430   -6.791343
  20 S    16.0000    0    32.060    5.365535   -0.398892   -2.377048
  21 C     6.0000    0    12.011    8.126903    0.454229   -0.673272
  22 N     7.0000    0    14.007    7.679940    0.917210    1.748789
  23 N     7.0000    0    14.007    5.202282    0.642666    2.422429
  24 C     6.0000    0    12.011    3.725304   -0.036566    0.512723
  25 C     6.0000    0    12.011    1.034248   -0.445274    0.742636
  26 N     7.0000    0    14.007   -0.438032   -1.133100   -1.165656
  27 N     7.0000    0    14.007   -2.919276   -1.404465   -0.495894
  28 C     6.0000    0    12.011   -3.384380   -0.921379    1.915435
  29 S    16.0000    0    32.060   -0.611533   -0.076263    3.627861
  30 C     6.0000    0    12.011   15.521352    0.989972   -3.961711
  31 C     6.0000    0    12.011   15.135686    1.497949   -1.384675
  32 C     6.0000    0    12.011   12.717326    1.323450   -0.306011
  33 C     6.0000    0    12.011   10.638429    0.629039   -1.822070
  34 C     6.0000    0    12.011   11.003435    0.116532   -4.403567
  35 C     6.0000    0    12.011   13.433828    0.299880   -5.451870
  36 O     8.0000    0    15.999   17.145136    2.164227    0.058619
  37 O     8.0000    0    15.999   13.741611   -0.202770   -7.945329
  38 H     1.0000    0     1.008    9.422820   -0.420350   -5.595637
  39 H     1.0000    0     1.008   16.623932    2.459033    1.783490
  40 H     1.0000    0     1.008   15.491463   -0.010641   -8.428480
  41 H     1.0000    0     1.008   12.432500    1.718755    1.687617
  42 H     1.0000    0     1.008  -12.313527   -2.049783    6.810878
  43 H     1.0000    0     1.008   17.400967    1.132020   -4.771167

--------------------------------
INTERNAL COORDINATES (ANGSTROEM)
--------------------------------
 C      0   0   0     0.000000000000     0.00000000     0.00000000
 C      1   0   0     1.392439955825     0.00000000     0.00000000
 C      2   1   0     1.407968161317   119.12037878     0.00000000
 C      3   2   1     1.423248981553   118.38381107   359.51541175
 C      4   3   2     1.403297872890   122.60640502     0.84636684
 C      5   4   3     1.392495119077   117.45406335   359.46106052
 C      3   2   1     1.454778677330   135.04743357   181.49088311
 C      7   3   2     1.426761403422   105.98496933   177.38564585
 N      8   7   3     1.382231552658   109.30192930     1.27546819
 C      8   7   3     1.402579590892   123.16569912   182.30496228
 C     10   8   7     1.393295942888   117.34525683     0.77425883
 C     11  10   8     1.400317432187   120.85027381   359.35021481
 C     12  11  10     1.408348129347   122.50556718   359.40488357
 H     12  11  10     1.087658007028   118.74056538   180.96672810
 H      9   8   7     1.012597824192   125.31722218   180.88977883
 H     11  10   8     1.086182671473   119.81386885   179.55662659
 H      2   1   3     1.086036216298   120.09441044   179.77340476
 H      5   4   3     1.086725294961   121.15789284   179.76706467
 H      6   5   4     1.086807068346   119.57411478   180.01559195
 H      1   2   3     1.086572295130   119.39816775   180.06981272
 S     17   2   1     5.845694197816   172.33129507   213.77301217
 C     21  17   2     1.775373275920   145.49870774   274.38502746
 N     22  21  17     1.326167885558   113.01615422    27.46982431
 N     23  22  21     1.366461464061   113.80419457     0.00000000
 C     24  23  22     1.327148222972   113.27952323     0.00000000
 C     25  24  23     1.445505199400   123.82156137   180.03416882
 N     26  25  24     1.326355861260   123.75581567   180.25709234
 N     27  26  25     1.367571758742   113.29505658   180.02329482
 C     28  27  26     1.324445050520   114.06901234     0.28194802
 S     26  25  24     1.768536131317   122.77070446     0.11168358
 C     22  21  17     4.291843436005   124.14578428   207.47295093
 C     31  22  21     1.404852697062    59.10991623   179.99775504
 C     32  31  22     1.404308573471   120.95510485     0.00000000
 C     33  32  31     1.410279742999   119.78682400     0.00000000
 C     34  33  32     1.406060881297   119.72177993     0.00000000
 C     35  34  33     1.404002336701   119.76088368     0.00000000
 O     32  31  22     1.355862535360   118.85724453   180.00127046
 O     36  35  34     1.355842716130   118.75057222   180.00145978
 H     35  34  33     1.085473703685   120.61360741   179.99579116
 H     37  32  31     0.966200591692   110.50309863   180.00207669
 H     38  36  35     0.965995630927   110.61438418   180.01239871
 H     33  32  31     1.086031302230   120.57417278   180.00020029
 H     10   8   7     1.086341848822   121.22308538   180.12629615
 H     31  22  21     1.085567951231   179.30073341   180.05382447

---------------------------
INTERNAL COORDINATES (A.U.)
---------------------------
 C      0   0   0     0.000000000000     0.00000000     0.00000000
 C      1   0   0     2.631330174440     0.00000000     0.00000000
 C      2   1   0     2.660674230170   119.12037878     0.00000000
 C      3   2   1     2.689550795518   118.38381107   359.51541175
 C      4   3   2     2.651848664077   122.60640502     0.84636684
 C      5   4   3     2.631434417878   117.45406335   359.46106052
 C      3   2   1     2.749133285623   135.04743357   181.49088311
 C      7   3   2     2.696188310916   105.98496933   177.38564585
 N      8   7   3     2.612039088188   109.30192930     1.27546819
 C      8   7   3     2.650491307813   123.16569912   182.30496228
 C     10   8   7     2.632947755562   117.34525683     0.77425883
 C     11  10   8     2.646216447390   120.85027381   359.35021481
 C     12  11  10     2.661392265686   122.50556718   359.40488357
 H     12  11  10     2.055375760650   118.74056538   180.96672810
 H      9   8   7     1.913532571528   125.31722218   180.88977883
 H     11  10   8     2.052587780496   119.81386885   179.55662659
 H      2   1   3     2.052311020323   120.09441044   179.77340476
 H      5   4   3     2.053613190280   121.15789284   179.76706467
 H      6   5   4     2.053767719584   119.57411478   180.01559195
 H      1   2   3     2.053324062501   119.39816775   180.06981272
 S     17   2   1    11.046761096525   172.33129507   213.77301217
 C     21  17   2     3.354969276971   145.49870774   274.38502746
 N     22  21  17     2.506094111306   113.01615422    27.46982431
 N     23  22  21     2.582237939632   113.80419457     0.00000000
 C     24  23  22     2.507946680537   113.27952323     0.00000000
 C     25  24  23     2.731608952025   123.82156137   180.03416882
 N     26  25  24     2.506449333902   123.75581567   180.25709234
 N     27  26  25     2.584336092508   113.29505658   180.02329482
 C     28  27  26     2.502838424911   114.06901234     0.28194802
 S     26  25  24     3.342048946133   122.77070446     0.11168358
 C     22  21  17     8.110408703718   124.14578428   207.47295093
 C     31  22  21     2.654786855948    59.10991623   179.99775504
 C     32  31  22     2.653758611378   120.95510485     0.00000000
 C     33  32  31     2.665042486485   119.78682400     0.00000000
 C     34  33  32     2.657069993271   119.72177993     0.00000000
 C     35  34  33     2.653179907750   119.76088368     0.00000000
 O     32  31  22     2.562208867074   118.85724453   180.00127046
 O     36  35  34     2.562171414158   118.75057222   180.00145978
 H     35  34  33     2.051248025538   120.61360741   179.99579116
 H     37  32  31     1.825854508731   110.50309863   180.00207669
 H     38  36  35     1.825467189016   110.61438418   180.01239871
 H     33  32  31     2.052301734080   120.57417278   180.00020029
 H     10   8   7     2.052888582092   121.22308538   180.12629615
 H     31  22  21     2.051426127588   179.30073341   180.05382447

---------------------
BASIS SET INFORMATION
---------------------
There are 5 groups of distinct atoms

 Group   1 Type C   : 11s6p2d1f contracted to 5s3p2d1f pattern {62111/411/11/1}
 Group   2 Type N   : 11s6p2d1f contracted to 5s3p2d1f pattern {62111/411/11/1}
 Group   3 Type H   : 5s1p contracted to 3s1p pattern {311/1}
 Group   4 Type S   : 14s9p3d1f contracted to 5s5p2d1f pattern {73211/51111/21/1}
 Group   5 Type O   : 11s6p2d1f contracted to 5s3p2d1f pattern {62111/411/11/1}

Atom   0C    basis set group =>   1
Atom   1C    basis set group =>   1
Atom   2C    basis set group =>   1
Atom   3C    basis set group =>   1
Atom   4C    basis set group =>   1
Atom   5C    basis set group =>   1
Atom   6C    basis set group =>   1
Atom   7C    basis set group =>   1
Atom   8N    basis set group =>   2
Atom   9C    basis set group =>   1
Atom  10C    basis set group =>   1
Atom  11C    basis set group =>   1
Atom  12C    basis set group =>   1
Atom  13H    basis set group =>   3
Atom  14H    basis set group =>   3
Atom  15H    basis set group =>   3
Atom  16H    basis set group =>   3
Atom  17H    basis set group =>   3
Atom  18H    basis set group =>   3
Atom  19H    basis set group =>   3
Atom  20S    basis set group =>   4
Atom  21C    basis set group =>   1
Atom  22N    basis set group =>   2
Atom  23N    basis set group =>   2
Atom  24C    basis set group =>   1
Atom  25C    basis set group =>   1
Atom  26N    basis set group =>   2
Atom  27N    basis set group =>   2
Atom  28C    basis set group =>   1
Atom  29S    basis set group =>   4
Atom  30C    basis set group =>   1
Atom  31C    basis set group =>   1
Atom  32C    basis set group =>   1
Atom  33C    basis set group =>   1
Atom  34C    basis set group =>   1
Atom  35C    basis set group =>   1
Atom  36O    basis set group =>   5
Atom  37O    basis set group =>   5
Atom  38H    basis set group =>   3
Atom  39H    basis set group =>   3
Atom  40H    basis set group =>   3
Atom  41H    basis set group =>   3
Atom  42H    basis set group =>   3
Atom  43H    basis set group =>   3
-------------------------------
AUXILIARY BASIS SET INFORMATION
-------------------------------
There are 5 groups of distinct atoms

 Group   1 Type C   : 12s5p4d2f1g contracted to 6s4p3d1f1g pattern {711111/2111/211/2/1}
 Group   2 Type N   : 12s5p4d2f1g contracted to 6s4p3d1f1g pattern {711111/2111/211/2/1}
 Group   3 Type H   : 5s2p1d contracted to 3s1p1d pattern {311/2/1}
 Group   4 Type S   : 14s5p5d2f1g contracted to 8s4p3d1f1g pattern {71111111/2111/311/2/1}
 Group   5 Type O   : 12s5p4d2f1g contracted to 6s4p3d1f1g pattern {711111/2111/211/2/1}

Atom   0C    basis set group =>   1
Atom   1C    basis set group =>   1
Atom   2C    basis set group =>   1
Atom   3C    basis set group =>   1
Atom   4C    basis set group =>   1
Atom   5C    basis set group =>   1
Atom   6C    basis set group =>   1
Atom   7C    basis set group =>   1
Atom   8N    basis set group =>   2
Atom   9C    basis set group =>   1
Atom  10C    basis set group =>   1
Atom  11C    basis set group =>   1
Atom  12C    basis set group =>   1
Atom  13H    basis set group =>   3
Atom  14H    basis set group =>   3
Atom  15H    basis set group =>   3
Atom  16H    basis set group =>   3
Atom  17H    basis set group =>   3
Atom  18H    basis set group =>   3
Atom  19H    basis set group =>   3
Atom  20S    basis set group =>   4
Atom  21C    basis set group =>   1
Atom  22N    basis set group =>   2
Atom  23N    basis set group =>   2
Atom  24C    basis set group =>   1
Atom  25C    basis set group =>   1
Atom  26N    basis set group =>   2
Atom  27N    basis set group =>   2
Atom  28C    basis set group =>   1
Atom  29S    basis set group =>   4
Atom  30C    basis set group =>   1
Atom  31C    basis set group =>   1
Atom  32C    basis set group =>   1
Atom  33C    basis set group =>   1
Atom  34C    basis set group =>   1
Atom  35C    basis set group =>   1
Atom  36O    basis set group =>   5
Atom  37O    basis set group =>   5
Atom  38H    basis set group =>   3
Atom  39H    basis set group =>   3
Atom  40H    basis set group =>   3
Atom  41H    basis set group =>   3
Atom  42H    basis set group =>   3
Atom  43H    basis set group =>   3
-------------------------
ECP PARAMETER INFORMATION
-------------------------



--------------------------------------------------------------------------
[[34164,1],1]: A high-performance Open MPI point-to-point messaging module
was unable to find any relevant network interfaces:

Module: OpenFabrics (openib)
  Host: cx1-105-9-1

Another transport will be used instead, although this may result in
lower performance.
--------------------------------------------------------------------------


           ************************************************************
           *        Program running with 24 parallel MPI-processes    *
           *              working on a common directory               *
           ************************************************************
------------------------------------------------------------------------------
                           ORCA GTO INTEGRAL CALCULATION
                           -- RI-GTO INTEGRALS CHOSEN --
------------------------------------------------------------------------------

                         BASIS SET STATISTICS AND STARTUP INFO

Gaussian basis set:
 # of primitive gaussian shells          ...  712
 # of primitive gaussian functions       ... 1564
 # of contracted shells                  ...  397
 # of contracted basis functions         ... 1051
 Highest angular momentum                ...    3
 Maximum contraction depth               ...    7
Auxiliary gaussian basis set:
 # of primitive gaussian shells          ...  854
 # of primitive gaussian functions       ... 2392
 # of contracted shells                  ...  534
 # of contracted aux-basis functions     ... 1666
 Highest angular momentum                ...    4
 Maximum contraction depth               ...    7
Ratio of auxiliary to basis functions    ...  1.59
Integral package used                  ... LIBINT
 One Electron integrals                  
   ECP integrals                         ... done
 Ordering auxiliary basis shells         ... done
 Integral threshhold             Thresh  ...  2.500e-11
 Primitive cut-off               TCut    ...  2.500e-12
 Pre-screening matrix                    ... done
 Shell pair data                         ... 
 Ordering of the shell pairs             ... done (   0.014 sec) 39634 of 79003 pairs
 Determination of significant pairs      ... done (   0.000 sec)
 Creation of shell pair data             ... done (   0.011 sec)
 Storage of shell pair data              ... done (   0.102 sec)
 Shell pair data done in (   0.128 sec)
 Computing two index integrals           ... done
 Cholesky decomposition of the V-matrix  ... done


Timings:
 Total evaluation time                   ...   4.872 sec (  0.081 min)
 One electron matrix time                ...   1.338 sec (  0.022 min) = 27.5%
 Schwartz matrix evaluation time         ...   2.437 sec (  0.041 min) = 50.0%
 Two index repulsion integral time       ...   0.409 sec (  0.007 min) =  8.4%
 Cholesky decomposition of V             ...   0.515 sec (  0.009 min) = 10.6%
 Three index repulsion integral time     ...   0.000 sec (  0.000 min) =  0.0%

--------------------------------------------------------------------------
[[33986,1],8]: A high-performance Open MPI point-to-point messaging module
was unable to find any relevant network interfaces:

Module: OpenFabrics (openib)
  Host: cx1-105-9-1

Another transport will be used instead, although this may result in
lower performance.
--------------------------------------------------------------------------


           ************************************************************
           *        Program running with 24 parallel MPI-processes    *
           *              working on a common directory               *
           ************************************************************
-------------------------------------------------------------------------------
                                 ORCA SCF
-------------------------------------------------------------------------------

------------
SCF SETTINGS
------------
Hamiltonian:
 Density Functional     Method          .... DFT(GTOs)
 Exchange Functional    Exchange        .... WB97X-D3
 Correlation Functional Correlation     .... WB97X-D3
 Gradients option       PostSCFGGA      .... off
 Hybrid DFT is turned on
   Fraction HF Exchange ScalHFX         ....  0.195728
   Scaling of DF-GGA-X  ScalDFX         ....  0.000000
   Scaling of DF-GGA-C  ScalDFC         ....  1.000000
   Scaling of DF-LDA-C  ScalLDAC        ....  1.000000
   Perturbative correction              ....  0.000000
 Long-range corrected/Screened/Range-Separated Hybrid DFT is turned on
   Amount of maximum screened exact exchange              ....  0.804272
   Range separation parameter mu (erf(mu*r12)/r12)        ....  0.250000
 RI-approximation to the Coulomb term is turned on
   Number of auxiliary basis functions  .... 1666
   RIJ-COSX (HFX calculated with COS-X)).... on


General Settings:
 Integral files         IntName         .... total
 Hartree-Fock type      HFTyp           .... RHF
 Total Charge           Charge          ....    0
 Multiplicity           Mult            ....    1
 Number of Electrons    NEL             ....  228
 Basis Dimension        Dim             .... 1051
 Nuclear Repulsion      ENuc            ....   2922.4384968164 Eh

Convergence Acceleration:
 DIIS                   CNVDIIS         .... on
   Start iteration      DIISMaxIt       ....    12
   Startup error        DIISStart       ....  0.200000
   # of expansion vecs  DIISMaxEq       ....     5
   Bias factor          DIISBfac        ....   1.050
   Max. coefficient     DIISMaxC        ....  10.000
 Newton-Raphson         CNVNR           .... off
 SOSCF                  CNVSOSCF        .... on
   Start iteration      SOSCFMaxIt      ....   150
   Startup grad/error   SOSCFStart      ....  0.003300
 Level Shifting         CNVShift        .... on
   Level shift para.    LevelShift      ....    0.2500
   Turn off err/grad.   ShiftErr        ....    0.0010
 Zerner damping         CNVZerner       .... off
 Static damping         CNVDamp         .... on
   Fraction old density DampFac         ....    0.7000
   Max. Damping (<1)    DampMax         ....    0.9800
   Min. Damping (>=0)   DampMin         ....    0.0000
   Turn off err/grad.   DampErr         ....    0.1000
 Fernandez-Rico         CNVRico         .... off

SCF Procedure:
 Maximum # iterations   MaxIter         ....   125
 SCF integral mode      SCFMode         .... Direct
   Integral package                     .... LIBINT
 Reset frequeny         DirectResetFreq ....    20
 Integral Threshold     Thresh          ....  2.500e-11 Eh
 Primitive CutOff       TCut            ....  2.500e-12 Eh

Convergence Tolerance:
 Convergence Check Mode ConvCheckMode   .... Total+1el-Energy
 Convergence forced     ConvForced      .... 1
 Energy Change          TolE            ....  1.000e-08 Eh
 1-El. energy change                    ....  1.000e-05 Eh
 Orbital Gradient       TolG            ....  1.000e-05
 Orbital Rotation angle TolX            ....  1.000e-05
 DIIS Error             TolErr          ....  5.000e-07


Diagonalization of the overlap matrix:
Smallest eigenvalue                        ... 6.235e-06
Time for diagonalization                   ...    0.390 sec
Threshold for overlap eigenvalues          ... 1.000e-08
Number of eigenvalues below threshold      ... 0
Time for construction of square roots      ...    0.408 sec
Total time needed                          ...    0.807 sec

-------------------
DFT GRID GENERATION
-------------------

General Integration Accuracy     IntAcc      ...  5.010
Radial Grid Type                 RadialGrid  ... Gauss-Chebyshev
Angular Grid (max. acc.)         AngularGrid ... Lebedev-434
Angular grid pruning method      GridPruning ... 3 (G Style)
Weight generation scheme         WeightScheme... Becke
Basis function cutoff            BFCut       ...    1.0000e-11
Integration weight cutoff        WCut        ...    1.0000e-14
Grids for H and He will be reduced by one unit

# of grid points (after initial pruning)     ... 420466 (   0.0 sec)
# of grid points (after weights+screening)   ... 371930 (   0.9 sec)
nearest neighbour list constructed           ...    0.0 sec
Grid point re-assignment to atoms done       ...    0.2 sec
Grid point division into batches done        ...    4.5 sec
Reduced shell lists constructed in    5.3 sec

Total number of grid points                  ...   371930
Total number of batches                      ...     5831
Average number of points per batch           ...       63
Average number of grid points per atom       ...     8453
Average number of shells per batch           ...   128.84 (32.45%)
Average number of basis functions per batch  ...   335.84 (31.95%)
Average number of large shells per batch     ...    88.77 (68.90%)
Average number of large basis fcns per batch ...   229.85 (68.44%)
Maximum spatial batch extension              ...  11.47, 15.01, 14.25 au
Average spatial batch extension              ...   0.06,  0.07,  0.06 au

Time for grid setup =    7.106 sec

------------------------------
INITIAL GUESS: MODEL POTENTIAL
------------------------------
Loading Hartree-Fock densities                     ... done
Calculating cut-offs                               ... done
Setting up the integral package                    ... done
Initializing the effective Hamiltonian             ... done
Starting the Coulomb interaction                   ... done (   0.4 sec)
Reading the grid                                   ... done
Mapping shells                                     ... done
Starting the XC term evaluation                    ... done (   1.9 sec)
  promolecular density results
     # of electrons  =    227.993717774
     EX              =   -215.170657373
     EC              =     -7.903115446
     EX+EC           =   -223.073772819
Transforming the Hamiltonian                       ... done (   0.2 sec)
Diagonalizing the Hamiltonian                      ... done (   0.4 sec)
Back transforming the eigenvectors                 ... done (   0.1 sec)
Now organizing SCF variables                       ... done
                      ------------------
                      INITIAL GUESS DONE (  10.4 sec)
                      ------------------
--------------------
COSX GRID GENERATION
--------------------

General Integration Accuracy     IntAcc      ...  3.340
Radial Grid Type                 RadialGrid  ... Gauss-Chebyshev
Angular Grid (max. acc.)         AngularGrid ... Lebedev-50
Angular grid pruning method      GridPruning ... 3 (G Style)
Weight generation scheme         WeightScheme... Becke
Basis function cutoff            BFCut       ...    1.0000e-11
Integration weight cutoff        WCut        ...    1.0000e-14
Grids for H and He will be reduced by one unit

# of grid points (after initial pruning)     ...  22322 (   0.0 sec)
# of grid points (after weights+screening)   ...  20539 (   0.1 sec)
nearest neighbour list constructed           ...    0.0 sec
Grid point re-assignment to atoms done       ...    0.0 sec
Grid point division into batches done        ...    0.0 sec
Reduced shell lists constructed in    0.1 sec

Total number of grid points                  ...    20539
Total number of batches                      ...      343
Average number of points per batch           ...       59
Average number of grid points per atom       ...      467
Average number of shells per batch           ...   143.06 (36.04%)
Average number of basis functions per batch  ...   379.81 (36.14%)
Average number of large shells per batch     ...   101.00 (70.60%)
Average number of large basis fcns per batch ...   266.38 (70.13%)
Maximum spatial batch extension              ...   3.61, 17.99,  7.01 au
Average spatial batch extension              ...   0.10,  0.25,  0.13 au

Overlap Fitting                  UseSFitting ... on
Constructing numerical overlap ... done (      0.1 sec)
Inverting numerical overlap    ... done (      0.2 sec)
Obtaining analytic overlap     ... done (      0.0 sec)
Final contraction and storage  ... done (      0.5 sec)


General Integration Accuracy     IntAcc      ...  3.670
Radial Grid Type                 RadialGrid  ... Gauss-Chebyshev
Angular Grid (max. acc.)         AngularGrid ... Lebedev-50
Angular grid pruning method      GridPruning ... 3 (G Style)
Weight generation scheme         WeightScheme... Becke
Basis function cutoff            BFCut       ...    1.0000e-11
Integration weight cutoff        WCut        ...    1.0000e-14
Grids for H and He will be reduced by one unit

# of grid points (after initial pruning)     ...  27930 (   0.0 sec)
# of grid points (after weights+screening)   ...  25615 (   0.1 sec)
nearest neighbour list constructed           ...    0.0 sec
Grid point re-assignment to atoms done       ...    0.0 sec
Grid point division into batches done        ...    0.0 sec
Reduced shell lists constructed in    0.1 sec

Total number of grid points                  ...    25615
Total number of batches                      ...      425
Average number of points per batch           ...       60
Average number of grid points per atom       ...      582
Average number of shells per batch           ...   140.42 (35.37%)
Average number of basis functions per batch  ...   370.42 (35.24%)
Average number of large shells per batch     ...    97.53 (69.45%)
Average number of large basis fcns per batch ...   255.63 (69.01%)
Maximum spatial batch extension              ...   3.32, 17.39,  5.53 au
Average spatial batch extension              ...   0.09,  0.22,  0.12 au

Overlap Fitting                  UseSFitting ... on
Constructing numerical overlap ... done (      0.1 sec)
Inverting numerical overlap    ... done (      0.1 sec)
Obtaining analytic overlap     ... done (      0.0 sec)
Final contraction and storage  ... done (      0.5 sec)


General Integration Accuracy     IntAcc      ...  4.010
Radial Grid Type                 RadialGrid  ... Gauss-Chebyshev
Angular Grid (max. acc.)         AngularGrid ... Lebedev-110
Angular grid pruning method      GridPruning ... 3 (G Style)
Weight generation scheme         WeightScheme... Becke
Basis function cutoff            BFCut       ...    1.0000e-11
Integration weight cutoff        WCut        ...    1.0000e-14
Grids for H and He will be reduced by one unit

# of grid points (after initial pruning)     ...  54428 (   0.0 sec)
# of grid points (after weights+screening)   ...  49422 (   0.1 sec)
nearest neighbour list constructed           ...    0.0 sec
Grid point re-assignment to atoms done       ...    0.0 sec
Grid point division into batches done        ...    0.1 sec
Reduced shell lists constructed in    0.2 sec

Total number of grid points                  ...    49422
Total number of batches                      ...      796
Average number of points per batch           ...       62
Average number of grid points per atom       ...     1123
Average number of shells per batch           ...   140.00 (35.26%)
Average number of basis functions per batch  ...   370.29 (35.23%)
Average number of large shells per batch     ...    97.54 (69.67%)
Average number of large basis fcns per batch ...   256.29 (69.21%)
Maximum spatial batch extension              ...  11.28, 30.34, 13.52 au
Average spatial batch extension              ...   0.10,  0.18,  0.12 au

Overlap Fitting                  UseSFitting ... on
Constructing numerical overlap ... done (      0.2 sec)
Inverting numerical overlap    ... done (      0.1 sec)
Obtaining analytic overlap     ... done (      0.0 sec)
Final contraction and storage  ... done (      0.4 sec)

Time for X-Grid setup             =    3.315 sec
--------------
SCF ITERATIONS
--------------
ITER       Energy         Delta-E        Max-DP      RMS-DP      [F,P]     Damp
               ***  Starting incremental Fock matrix formation  ***
  0  -2066.1813949470   0.000000000000 0.08381087  0.00065797  0.2125921 0.7000
  1  -2066.4476288720  -0.266233924954 0.08980715  0.00056246  0.1125449 0.7000
                               ***Turning on DIIS***
  2  -2066.5781412298  -0.130512357787 0.17738095  0.00122806  0.0535849 0.0000
  3  -2066.7898305953  -0.211689365482 0.05142323  0.00035046  0.0466791 0.0000
  4  -2066.8255677679  -0.035737172647 0.01187050  0.00011715  0.0084488 0.0000
  5  -2066.8271052472  -0.001537479242 0.00587768  0.00005212  0.0043051 0.0000
                      *** Initiating the SOSCF procedure ***
                           *** Shutting down DIIS ***
                      *** Re-Reading the Fockian *** 
                      *** Removing any level shift *** 
ITER      Energy       Delta-E        Grad      Rot      Max-DP    RMS-DP
  6  -2066.82751218  -0.0004069285  0.002496  0.002496  0.002600  0.000030
               *** Restarting incremental Fock matrix formation ***
  7  -2066.82766470  -0.0001525233  0.001528  0.004270  0.028862  0.000161
  8  -2066.82772131  -0.0000566068  0.000526  0.004272  0.018686  0.000099
  9  -2066.82773504  -0.0000137320  0.000182  0.000712  0.016237  0.000083
 10  -2066.82774179  -0.0000067567  0.000061  0.000214  0.001595  0.000010
 11  -2066.82774196  -0.0000001673  0.000053  0.000095  0.001464  0.000008
 12  -2066.82774224  -0.0000002815  0.000012  0.000028  0.000192  0.000002
 13  -2066.82774225  -0.0000000063  0.000008  0.000015  0.000165  0.000002
 14  -2066.82774230  -0.0000000459  0.000003  0.000009  0.000197  0.000002
                  ***Gradient check signals convergence***
              ***Rediagonalizing the Fockian in SOSCF/NRSCF***

               *****************************************************
               *                     SUCCESS                       *
               *           SCF CONVERGED AFTER  15 CYCLES          *
               *****************************************************

Old exchange energy                            =    -67.168762118 Eh
New exchange energy                            =    -67.169335443 Eh
Exchange energy change after final integration =     -0.000573325 Eh
Total energy after final integration           =  -2066.828315649 Eh
Final COS-X integration done in                =    40.166 sec

----------------
TOTAL SCF ENERGY
----------------

Total Energy       :        -2066.82831565 Eh          -56241.25772 eV

Components:
Nuclear Repulsion  :         2922.43849682 Eh           79523.59440 eV
Electronic Energy  :        -4989.26681247 Eh         -135764.85212 eV
One Electron Energy:        -8637.69663132 Eh         -235043.67473 eV
Two Electron Energy:         3648.42981886 Eh           99278.82261 eV

Virial components:
Potential Energy   :        -4125.51858692 Eh         -112261.06799 eV
Kinetic Energy     :         2058.69027127 Eh           56019.81027 eV
Virial Ratio       :            2.00395302


DFT components:
N(Alpha)           :      114.000014718771 electrons
N(Beta)            :      114.000014718771 electrons
N(Total)           :      228.000029437542 electrons
E(XC)              :     -159.888879781273 Eh       

---------------
SCF CONVERGENCE
---------------

  Last Energy change         ...   -2.8823e-08  Tolerance :   1.0000e-08
  Last MAX-Density change    ...    1.6792e-14  Tolerance :   1.0000e-07
  Last RMS-Density change    ...    8.7130e-17  Tolerance :   5.0000e-09
  Last Orbital Gradient      ...    1.8757e-06  Tolerance :   1.0000e-05
  Last Orbital Rotation      ...    2.4373e-06  Tolerance :   1.0000e-05

             **** THE GBW FILE WAS UPDATED (total.gbw) ****
             **** DENSITY FILE WAS UPDATED (total.scfp.tmp) ****
             **** ENERGY FILE WAS UPDATED (total.en.tmp) ****
----------------
ORBITAL ENERGIES
----------------

  NO   OCC          E(Eh)            E(eV) 
   0   2.0000     -89.010287     -2422.0931 
   1   2.0000     -89.008191     -2422.0360 
   2   2.0000     -19.278007      -524.5812 
   3   2.0000     -19.276816      -524.5488 
   4   2.0000     -14.474658      -393.8755 
   5   2.0000     -14.473762      -393.8511 
   6   2.0000     -14.471516      -393.7900 
   7   2.0000     -14.467744      -393.6873 
   8   2.0000     -14.464806      -393.6074 
   9   2.0000     -10.380836      -282.4769 
  10   2.0000     -10.379710      -282.4463 
  11   2.0000     -10.376049      -282.3466 
  12   2.0000     -10.375502      -282.3318 
  13   2.0000     -10.367047      -282.1017 
  14   2.0000     -10.365886      -282.0701 
  15   2.0000     -10.335616      -281.2464 
  16   2.0000     -10.326738      -281.0048 
  17   2.0000     -10.326139      -280.9885 
  18   2.0000     -10.321594      -280.8648 
  19   2.0000     -10.305984      -280.4401 
  20   2.0000     -10.300285      -280.2850 
  21   2.0000     -10.296911      -280.1932 
  22   2.0000     -10.295819      -280.1635 
  23   2.0000     -10.295552      -280.1562 
  24   2.0000     -10.294267      -280.1212 
  25   2.0000     -10.291609      -280.0489 
  26   2.0000     -10.289660      -279.9959 
  27   2.0000     -10.285064      -279.8708 
  28   2.0000     -10.284085      -279.8442 
  29   2.0000     -10.278125      -279.6820 
  30   2.0000     -10.271404      -279.4991 
  31   2.0000      -8.106500      -220.5891 
  32   2.0000      -8.104430      -220.5328 
  33   2.0000      -6.059506      -164.8876 
  34   2.0000      -6.057505      -164.8331 
  35   2.0000      -6.055695      -164.7839 
  36   2.0000      -6.053642      -164.7280 
  37   2.0000      -6.053594      -164.7267 
  38   2.0000      -6.051517      -164.6702 
  39   2.0000      -1.197486       -32.5852 
  40   2.0000      -1.194968       -32.5167 
  41   2.0000      -1.157945       -31.5093 
  42   2.0000      -1.149849       -31.2890 
  43   2.0000      -1.108698       -30.1692 
  44   2.0000      -0.999573       -27.1998 
  45   2.0000      -0.992194       -26.9990 
  46   2.0000      -0.975582       -26.5469 
  47   2.0000      -0.964424       -26.2433 
  48   2.0000      -0.946984       -25.7688 
  49   2.0000      -0.935065       -25.4444 
  50   2.0000      -0.916974       -24.9521 
  51   2.0000      -0.902626       -24.5617 
  52   2.0000      -0.879263       -23.9260 
  53   2.0000      -0.875058       -23.8115 
  54   2.0000      -0.867109       -23.5952 
  55   2.0000      -0.847680       -23.0666 
  56   2.0000      -0.842010       -22.9123 
  57   2.0000      -0.788111       -21.4456 
  58   2.0000      -0.778458       -21.1829 
  59   2.0000      -0.765939       -20.8422 
  60   2.0000      -0.744565       -20.2607 
  61   2.0000      -0.732061       -19.9204 
  62   2.0000      -0.724770       -19.7220 
  63   2.0000      -0.716498       -19.4969 
  64   2.0000      -0.708925       -19.2908 
  65   2.0000      -0.686256       -18.6740 
  66   2.0000      -0.665631       -18.1127 
  67   2.0000      -0.659427       -17.9439 
  68   2.0000      -0.645076       -17.5534 
  69   2.0000      -0.626240       -17.0409 
  70   2.0000      -0.621782       -16.9195 
  71   2.0000      -0.617367       -16.7994 
  72   2.0000      -0.613146       -16.6846 
  73   2.0000      -0.604420       -16.4471 
  74   2.0000      -0.584502       -15.9051 
  75   2.0000      -0.577729       -15.7208 
  76   2.0000      -0.571346       -15.5471 
  77   2.0000      -0.565195       -15.3797 
  78   2.0000      -0.556256       -15.1365 
  79   2.0000      -0.551778       -15.0146 
  80   2.0000      -0.547188       -14.8898 
  81   2.0000      -0.540607       -14.7107 
  82   2.0000      -0.538818       -14.6620 
  83   2.0000      -0.535512       -14.5720 
  84   2.0000      -0.530218       -14.4280 
  85   2.0000      -0.526731       -14.3331 
  86   2.0000      -0.523694       -14.2504 
  87   2.0000      -0.519946       -14.1484 
  88   2.0000      -0.514856       -14.0100 
  89   2.0000      -0.510841       -13.9007 
  90   2.0000      -0.495209       -13.4753 
  91   2.0000      -0.478894       -13.0314 
  92   2.0000      -0.474060       -12.8998 
  93   2.0000      -0.472714       -12.8632 
  94   2.0000      -0.469352       -12.7717 
  95   2.0000      -0.464855       -12.6494 
  96   2.0000      -0.459010       -12.4903 
  97   2.0000      -0.446767       -12.1571 
  98   2.0000      -0.442626       -12.0445 
  99   2.0000      -0.435387       -11.8475 
 100   2.0000      -0.421141       -11.4598 
 101   2.0000      -0.414697       -11.2845 
 102   2.0000      -0.401866       -10.9353 
 103   2.0000      -0.397773       -10.8240 
 104   2.0000      -0.393720       -10.7137 
 105   2.0000      -0.383181       -10.4269 
 106   2.0000      -0.376924       -10.2566 
 107   2.0000      -0.371701       -10.1145 
 108   2.0000      -0.363901        -9.9023 
 109   2.0000      -0.341282        -9.2868 
 110   2.0000      -0.319699        -8.6995 
 111   2.0000      -0.317180        -8.6309 
 112   2.0000      -0.301114        -8.1937 
 113   2.0000      -0.291138        -7.9223 
 114   0.0000      -0.035719        -0.9720 
 115   0.0000       0.001011         0.0275 
 116   0.0000       0.029004         0.7893 
 117   0.0000       0.049507         1.3472 
 118   0.0000       0.064104         1.7444 
 119   0.0000       0.069566         1.8930 
 120   0.0000       0.074547         2.0285 
 121   0.0000       0.082716         2.2508 
 122   0.0000       0.094951         2.5837 
 123   0.0000       0.103279         2.8104 
 124   0.0000       0.105342         2.8665 
 125   0.0000       0.108508         2.9526 
 126   0.0000       0.109783         2.9873 
 127   0.0000       0.115092         3.1318 
 128   0.0000       0.124080         3.3764 
 129   0.0000       0.129662         3.5283 
 130   0.0000       0.134453         3.6586 
 131   0.0000       0.140306         3.8179 
 132   0.0000       0.148353         4.0369 
 133   0.0000       0.161297         4.3891 
 134   0.0000       0.163160         4.4398 
 135   0.0000       0.165761         4.5106 
 136   0.0000       0.171012         4.6535 
 137   0.0000       0.173302         4.7158 
 138   0.0000       0.181481         4.9384 
 139   0.0000       0.186992         5.0883 
 140   0.0000       0.189200         5.1484 
 141   0.0000       0.198707         5.4071 
 142   0.0000       0.203159         5.5282 
 143   0.0000       0.214386         5.8337 
 144   0.0000       0.216566         5.8931 
 145   0.0000       0.219979         5.9859 
 146   0.0000       0.221032         6.0146 
 147   0.0000       0.228189         6.2093 
 148   0.0000       0.240022         6.5313 
 149   0.0000       0.241270         6.5653 
 150   0.0000       0.248695         6.7673 
 151   0.0000       0.251820         6.8524 
 152   0.0000       0.258413         7.0318 
 153   0.0000       0.261049         7.1035 
 154   0.0000       0.264913         7.2087 
 155   0.0000       0.268245         7.2993 
 156   0.0000       0.273299         7.4368 
 157   0.0000       0.276781         7.5316 
 158   0.0000       0.281422         7.6579 
 159   0.0000       0.285916         7.7802 
 160   0.0000       0.286451         7.7947 
 161   0.0000       0.287880         7.8336 
 162   0.0000       0.289956         7.8901 
 163   0.0000       0.293614         7.9896 
 164   0.0000       0.296261         8.0617 
 165   0.0000       0.297929         8.1071 
 166   0.0000       0.299880         8.1602 
 167   0.0000       0.304138         8.2760 
 168   0.0000       0.305702         8.3186 
 169   0.0000       0.310768         8.4564 
 170   0.0000       0.313571         8.5327 
 171   0.0000       0.317463         8.6386 
 172   0.0000       0.318688         8.6719 
 173   0.0000       0.327204         8.9037 
 174   0.0000       0.330657         8.9976 
 175   0.0000       0.333322         9.0701 
 176   0.0000       0.339512         9.2386 
 177   0.0000       0.341532         9.2936 
 178   0.0000       0.346845         9.4381 
 179   0.0000       0.349331         9.5058 
 180   0.0000       0.350707         9.5432 
 181   0.0000       0.353099         9.6083 
 182   0.0000       0.356933         9.7126 
 183   0.0000       0.368174        10.0185 
 184   0.0000       0.369530        10.0554 
 185   0.0000       0.371636        10.1127 
 186   0.0000       0.375328        10.2132 
 187   0.0000       0.378211        10.2916 
 188   0.0000       0.379515        10.3271 
 189   0.0000       0.384960        10.4753 
 190   0.0000       0.386907        10.5283 
 191   0.0000       0.389717        10.6047 
 192   0.0000       0.391264        10.6468 
 193   0.0000       0.394087        10.7237 
 194   0.0000       0.399330        10.8663 
 195   0.0000       0.402168        10.9435 
 196   0.0000       0.406179        11.0527 
 197   0.0000       0.408554        11.1173 
 198   0.0000       0.411620        11.2007 
 199   0.0000       0.413805        11.2602 
 200   0.0000       0.419232        11.4079 
 201   0.0000       0.426847        11.6151 
 202   0.0000       0.430027        11.7016 
 203   0.0000       0.433262        11.7897 
 204   0.0000       0.435206        11.8425 
 205   0.0000       0.439820        11.9681 
 206   0.0000       0.440400        11.9839 
 207   0.0000       0.444085        12.0842 
 208   0.0000       0.444429        12.0935 
 209   0.0000       0.447188        12.1686 
 210   0.0000       0.449685        12.2365 
 211   0.0000       0.453688        12.3455 
 212   0.0000       0.457564        12.4509 
 213   0.0000       0.461061        12.5461 
 214   0.0000       0.467885        12.7318 
 215   0.0000       0.469574        12.7777 
 216   0.0000       0.472725        12.8635 
 217   0.0000       0.476537        12.9672 
 218   0.0000       0.478867        13.0306 
 219   0.0000       0.479789        13.0557 
 220   0.0000       0.485151        13.2016 
 221   0.0000       0.486229        13.2310 
 222   0.0000       0.491761        13.3815 
 223   0.0000       0.495522        13.4839 
 224   0.0000       0.496572        13.5124 
 225   0.0000       0.500651        13.6234 
 226   0.0000       0.502155        13.6643 
 227   0.0000       0.505722        13.7614 
 228   0.0000       0.507571        13.8117 
 229   0.0000       0.512182        13.9372 
 230   0.0000       0.515781        14.0351 
 231   0.0000       0.523027        14.2323 
 232   0.0000       0.528895        14.3920 
 233   0.0000       0.529551        14.4098 
 234   0.0000       0.532024        14.4771 
 235   0.0000       0.536940        14.6109 
 236   0.0000       0.540723        14.7138 
 237   0.0000       0.542752        14.7690 
 238   0.0000       0.544815        14.8252 
 239   0.0000       0.547865        14.9082 
 240   0.0000       0.549396        14.9498 
 241   0.0000       0.554378        15.0854 
 242   0.0000       0.558584        15.1998 
 243   0.0000       0.560180        15.2433 
 244   0.0000       0.566644        15.4192 
 245   0.0000       0.570875        15.5343 
 246   0.0000       0.573276        15.5996 
 247   0.0000       0.581912        15.8346 
 248   0.0000       0.583881        15.8882 
 249   0.0000       0.585201        15.9241 
 250   0.0000       0.590137        16.0585 
 251   0.0000       0.592473        16.1220 
 252   0.0000       0.596494        16.2314 
 253   0.0000       0.604750        16.4561 
 254   0.0000       0.608089        16.5469 
 255   0.0000       0.615641        16.7524 
 256   0.0000       0.625160        17.0115 
 257   0.0000       0.627548        17.0765 
 258   0.0000       0.633205        17.2304 
 259   0.0000       0.639377        17.3983 
 260   0.0000       0.643015        17.4973 
 261   0.0000       0.648112        17.6360 
 262   0.0000       0.649054        17.6617 
 263   0.0000       0.654349        17.8057 
 264   0.0000       0.655553        17.8385 
 265   0.0000       0.669043        18.2056 
 266   0.0000       0.673718        18.3328 
 267   0.0000       0.676863        18.4184 
 268   0.0000       0.678711        18.4687 
 269   0.0000       0.681009        18.5312 
 270   0.0000       0.681960        18.5571 
 271   0.0000       0.685450        18.6520 
 272   0.0000       0.686532        18.6815 
 273   0.0000       0.692489        18.8436 
 274   0.0000       0.697969        18.9927 
 275   0.0000       0.704675        19.1752 
 276   0.0000       0.707362        19.2483 
 277   0.0000       0.709879        19.3168 
 278   0.0000       0.713729        19.4215 
 279   0.0000       0.715430        19.4678 
 280   0.0000       0.723770        19.6948 
 281   0.0000       0.727533        19.7972 
 282   0.0000       0.730712        19.8837 
 283   0.0000       0.734774        19.9942 
 284   0.0000       0.738102        20.0848 
 285   0.0000       0.743343        20.2274 
 286   0.0000       0.746113        20.3028 
 287   0.0000       0.749525        20.3956 
 288   0.0000       0.751962        20.4619 
 289   0.0000       0.755597        20.5608 
 290   0.0000       0.759717        20.6730 
 291   0.0000       0.764975        20.8160 
 292   0.0000       0.769719        20.9451 
 293   0.0000       0.773265        21.0416 
 294   0.0000       0.775327        21.0977 
 295   0.0000       0.779707        21.2169 
 296   0.0000       0.787965        21.4416 
 297   0.0000       0.792688        21.5701 
 298   0.0000       0.795263        21.6402 
 299   0.0000       0.797877        21.7113 
 300   0.0000       0.801281        21.8040 
 301   0.0000       0.804462        21.8905 
 302   0.0000       0.810055        22.0427 
 303   0.0000       0.812441        22.1076 
 304   0.0000       0.823034        22.3959 
 305   0.0000       0.825007        22.4496 
 306   0.0000       0.829654        22.5760 
 307   0.0000       0.832991        22.6668 
 308   0.0000       0.839286        22.8381 
 309   0.0000       0.843219        22.9452 
 310   0.0000       0.845914        23.0185 
 311   0.0000       0.852131        23.1877 
 312   0.0000       0.854959        23.2646 
 313   0.0000       0.857689        23.3389 
 314   0.0000       0.858325        23.3562 
 315   0.0000       0.864068        23.5125 
 316   0.0000       0.865975        23.5644 
 317   0.0000       0.874742        23.8029 
 318   0.0000       0.881199        23.9786 
 319   0.0000       0.889917        24.2159 
 320   0.0000       0.890683        24.2367 
 321   0.0000       0.899602        24.4794 
 322   0.0000       0.902329        24.5536 
 323   0.0000       0.905426        24.6379 
 324   0.0000       0.911329        24.7985 
 325   0.0000       0.914870        24.8949 
 326   0.0000       0.921493        25.0751 
 327   0.0000       0.929113        25.2824 
 328   0.0000       0.929415        25.2907 
 329   0.0000       0.932758        25.3816 
 330   0.0000       0.937178        25.5019 
 331   0.0000       0.940710        25.5980 
 332   0.0000       0.943313        25.6689 
 333   0.0000       0.947252        25.7760 
 334   0.0000       0.956554        26.0292 
 335   0.0000       0.960106        26.1258 
 336   0.0000       0.961746        26.1704 
 337   0.0000       0.966367        26.2962 
 338   0.0000       0.975581        26.5469 
 339   0.0000       0.986610        26.8470 
 340   0.0000       0.989223        26.9181 
 341   0.0000       0.989899        26.9365 
 342   0.0000       0.994944        27.0738 
 343   0.0000       1.002044        27.2670 
 344   0.0000       1.007605        27.4183 
 345   0.0000       1.022160        27.8144 
 346   0.0000       1.027131        27.9497 
 347   0.0000       1.036945        28.2167 
 348   0.0000       1.039269        28.2800 
 349   0.0000       1.046438        28.4750 
 350   0.0000       1.052885        28.6505 
 351   0.0000       1.066183        29.0123 
 352   0.0000       1.070861        29.1396 
 353   0.0000       1.075325        29.2611 
 354   0.0000       1.081823        29.4379 
 355   0.0000       1.087852        29.6019 
 356   0.0000       1.100507        29.9463 
 357   0.0000       1.105148        30.0726 
 358   0.0000       1.113453        30.2986 
 359   0.0000       1.118638        30.4397 
 360   0.0000       1.125186        30.6179 
 361   0.0000       1.134520        30.8719 
 362   0.0000       1.136557        30.9273 
 363   0.0000       1.141777        31.0693 
 364   0.0000       1.150234        31.2995 
 365   0.0000       1.161179        31.5973 
 366   0.0000       1.164608        31.6906 
 367   0.0000       1.168340        31.7922 
 368   0.0000       1.169518        31.8242 
 369   0.0000       1.181230        32.1429 
 370   0.0000       1.185538        32.2601 
 371   0.0000       1.190084        32.3838 
 372   0.0000       1.196196        32.5501 
 373   0.0000       1.206115        32.8200 
 374   0.0000       1.210197        32.9311 
 375   0.0000       1.225623        33.3509 
 376   0.0000       1.226420        33.3726 
 377   0.0000       1.236035        33.6342 
 378   0.0000       1.245343        33.8875 
 379   0.0000       1.251113        34.0445 
 380   0.0000       1.251821        34.0638 
 381   0.0000       1.261414        34.3248 
 382   0.0000       1.266445        34.4617 
 383   0.0000       1.270636        34.5758 
 384   0.0000       1.274909        34.6920 
 385   0.0000       1.280449        34.8428 
 386   0.0000       1.284096        34.9420 
 387   0.0000       1.295042        35.2399 
 388   0.0000       1.310976        35.6735 
 389   0.0000       1.317544        35.8522 
 390   0.0000       1.319366        35.9018 
 391   0.0000       1.325052        36.0565 
 392   0.0000       1.330727        36.2109 
 393   0.0000       1.333260        36.2799 
 394   0.0000       1.341464        36.5031 
 395   0.0000       1.349342        36.7175 
 396   0.0000       1.353543        36.8318 
 397   0.0000       1.360515        37.0215 
 398   0.0000       1.366179        37.1756 
 399   0.0000       1.370858        37.3029 
 400   0.0000       1.379454        37.5369 
 401   0.0000       1.383970        37.6597 
 402   0.0000       1.393688        37.9242 
 403   0.0000       1.400225        38.1021 
 404   0.0000       1.406089        38.2616 
 405   0.0000       1.411334        38.4043 
 406   0.0000       1.418172        38.5904 
 407   0.0000       1.426282        38.8111 
 408   0.0000       1.439613        39.1739 
 409   0.0000       1.440339        39.1936 
 410   0.0000       1.446618        39.3645 
 411   0.0000       1.453380        39.5485 
 412   0.0000       1.460817        39.7508 
 413   0.0000       1.461397        39.7666 
 414   0.0000       1.465548        39.8796 
 415   0.0000       1.474512        40.1235 
 416   0.0000       1.479050        40.2470 
 417   0.0000       1.480252        40.2797 
 418   0.0000       1.486485        40.4493 
 419   0.0000       1.490397        40.5558 
 420   0.0000       1.491763        40.5929 
 421   0.0000       1.496849        40.7313 
 422   0.0000       1.502340        40.8808 
 423   0.0000       1.508100        41.0375 
 424   0.0000       1.518660        41.3248 
 425   0.0000       1.523595        41.4591 
 426   0.0000       1.527146        41.5557 
 427   0.0000       1.537629        41.8410 
 428   0.0000       1.542760        41.9806 
 429   0.0000       1.546066        42.0706 
 430   0.0000       1.553998        42.2864 
 431   0.0000       1.557363        42.3780 
 432   0.0000       1.563885        42.5555 
 433   0.0000       1.567015        42.6407 
 434   0.0000       1.571656        42.7669 
 435   0.0000       1.580629        43.0111 
 436   0.0000       1.586554        43.1723 
 437   0.0000       1.592224        43.3266 
 438   0.0000       1.603494        43.6333 
 439   0.0000       1.607377        43.7390 
 440   0.0000       1.608511        43.7698 
 441   0.0000       1.609638        43.8005 
 442   0.0000       1.613923        43.9171 
 443   0.0000       1.615863        43.9699 
 444   0.0000       1.621449        44.1219 
 445   0.0000       1.630338        44.3637 
 446   0.0000       1.632406        44.4200 
 447   0.0000       1.638806        44.5942 
 448   0.0000       1.644167        44.7401 
 449   0.0000       1.651089        44.9284 
 450   0.0000       1.655629        45.0520 
 451   0.0000       1.662475        45.2382 
 452   0.0000       1.666942        45.3598 
 453   0.0000       1.677213        45.6393 
 454   0.0000       1.679613        45.7046 
 455   0.0000       1.683863        45.8202 
 456   0.0000       1.687144        45.9095 
 457   0.0000       1.689376        45.9702 
 458   0.0000       1.695969        46.1497 
 459   0.0000       1.698586        46.2209 
 460   0.0000       1.701563        46.3019 
 461   0.0000       1.704923        46.3933 
 462   0.0000       1.707910        46.4746 
 463   0.0000       1.715640        46.6849 
 464   0.0000       1.720442        46.8156 
 465   0.0000       1.723211        46.8910 
 466   0.0000       1.725304        46.9479 
 467   0.0000       1.730659        47.0936 
 468   0.0000       1.737678        47.2846 
 469   0.0000       1.740620        47.3647 
 470   0.0000       1.741841        47.3979 
 471   0.0000       1.753382        47.7120 
 472   0.0000       1.759209        47.8705 
 473   0.0000       1.765613        48.0448 
 474   0.0000       1.777457        48.3671 
 475   0.0000       1.782863        48.5142 
 476   0.0000       1.785281        48.5800 
 477   0.0000       1.788968        48.6803 
 478   0.0000       1.793480        48.8031 
 479   0.0000       1.797065        48.9006 
 480   0.0000       1.801034        49.0086 
 481   0.0000       1.804507        49.1031 
 482   0.0000       1.808361        49.2080 
 483   0.0000       1.811044        49.2810 
 484   0.0000       1.813786        49.3556 
 485   0.0000       1.818374        49.4805 
 486   0.0000       1.819416        49.5088 
 487   0.0000       1.830467        49.8095 
 488   0.0000       1.836641        49.9775 
 489   0.0000       1.838480        50.0276 
 490   0.0000       1.847963        50.2856 
 491   0.0000       1.850526        50.3554 
 492   0.0000       1.851856        50.3916 
 493   0.0000       1.858509        50.5726 
 494   0.0000       1.867677        50.8221 
 495   0.0000       1.877646        51.0934 
 496   0.0000       1.884498        51.2798 
 497   0.0000       1.886535        51.3352 
 498   0.0000       1.890304        51.4378 
 499   0.0000       1.902131        51.7596 
 500   0.0000       1.908419        51.9307 
 501   0.0000       1.910823        51.9961 
 502   0.0000       1.919623        52.2356 
 503   0.0000       1.920946        52.2716 
 504   0.0000       1.943625        52.8887 
 505   0.0000       1.949253        53.0419 
 506   0.0000       1.954909        53.1958 
 507   0.0000       1.958790        53.3014 
 508   0.0000       1.959822        53.3295 
 509   0.0000       1.966825        53.5200 
 510   0.0000       1.969773        53.6002 
 511   0.0000       1.975700        53.7615 
 512   0.0000       1.976529        53.7841 
 513   0.0000       1.981427        53.9174 
 514   0.0000       1.987396        54.0798 
 515   0.0000       1.995035        54.2877 
 516   0.0000       2.004513        54.5456 
 517   0.0000       2.016278        54.8657 
 518   0.0000       2.017522        54.8996 
 519   0.0000       2.022845        55.0444 
 520   0.0000       2.031499        55.2799 
 521   0.0000       2.034327        55.3568 
 522   0.0000       2.049106        55.7590 
 523   0.0000       2.065052        56.1929 
 524   0.0000       2.067892        56.2702 
 525   0.0000       2.070875        56.3514 
 526   0.0000       2.089681        56.8631 
 527   0.0000       2.090447        56.8840 
 528   0.0000       2.097252        57.0691 
 529   0.0000       2.099654        57.1345 
 530   0.0000       2.102348        57.2078 
 531   0.0000       2.113253        57.5046 
 532   0.0000       2.119407        57.6720 
 533   0.0000       2.134643        58.0866 
 534   0.0000       2.139762        58.2259 
 535   0.0000       2.146888        58.4198 
 536   0.0000       2.151650        58.5494 
 537   0.0000       2.153353        58.5957 
 538   0.0000       2.161581        58.8196 
 539   0.0000       2.167485        58.9803 
 540   0.0000       2.173048        59.1316 
 541   0.0000       2.176697        59.2309 
 542   0.0000       2.181149        59.3521 
 543   0.0000       2.185579        59.4726 
 544   0.0000       2.189783        59.5870 
 545   0.0000       2.195239        59.7355 
 546   0.0000       2.199577        59.8535 
 547   0.0000       2.208009        60.0830 
 548   0.0000       2.213322        60.2275 
 549   0.0000       2.219067        60.3839 
 550   0.0000       2.220855        60.4325 
 551   0.0000       2.226730        60.5924 
 552   0.0000       2.231790        60.7301 
 553   0.0000       2.234333        60.7993 
 554   0.0000       2.240452        60.9658 
 555   0.0000       2.245083        61.0918 
 556   0.0000       2.256842        61.4118 
 557   0.0000       2.267714        61.7076 
 558   0.0000       2.282338        62.1056 
 559   0.0000       2.285387        62.1885 
 560   0.0000       2.293411        62.4069 
 561   0.0000       2.300862        62.6096 
 562   0.0000       2.307846        62.7997 
 563   0.0000       2.315378        63.0046 
 564   0.0000       2.323437        63.2239 
 565   0.0000       2.326460        63.3062 
 566   0.0000       2.333134        63.4878 
 567   0.0000       2.335908        63.5633 
 568   0.0000       2.342583        63.7449 
 569   0.0000       2.344730        63.8034 
 570   0.0000       2.355171        64.0875 
 571   0.0000       2.360592        64.2350 
 572   0.0000       2.364144        64.3316 
 573   0.0000       2.368170        64.4412 
 574   0.0000       2.403333        65.3980 
 575   0.0000       2.411918        65.6316 
 576   0.0000       2.417644        65.7874 
 577   0.0000       2.421767        65.8996 
 578   0.0000       2.426319        66.0235 
 579   0.0000       2.432188        66.1832 
 580   0.0000       2.434921        66.2576 
 581   0.0000       2.450599        66.6842 
 582   0.0000       2.458655        66.9034 
 583   0.0000       2.470318        67.2208 
 584   0.0000       2.491852        67.8067 
 585   0.0000       2.497140        67.9506 
 586   0.0000       2.506059        68.1933 
 587   0.0000       2.514884        68.4335 
 588   0.0000       2.522388        68.6377 
 589   0.0000       2.528561        68.8056 
 590   0.0000       2.534589        68.9697 
 591   0.0000       2.545602        69.2693 
 592   0.0000       2.548495        69.3481 
 593   0.0000       2.565430        69.8089 
 594   0.0000       2.579292        70.1861 
 595   0.0000       2.586096        70.3713 
 596   0.0000       2.587801        70.4177 
 597   0.0000       2.597142        70.6718 
 598   0.0000       2.615047        71.1590 
 599   0.0000       2.618386        71.2499 
 600   0.0000       2.625593        71.4460 
 601   0.0000       2.634973        71.7013 
 602   0.0000       2.640581        71.8539 
 603   0.0000       2.648335        72.0649 
 604   0.0000       2.660976        72.4088 
 605   0.0000       2.667474        72.5857 
 606   0.0000       2.672824        72.7313 
 607   0.0000       2.677698        72.8639 
 608   0.0000       2.686633        73.1070 
 609   0.0000       2.687212        73.1227 
 610   0.0000       2.692459        73.2655 
 611   0.0000       2.694198        73.3128 
 612   0.0000       2.700981        73.4974 
 613   0.0000       2.708057        73.6900 
 614   0.0000       2.714051        73.8531 
 615   0.0000       2.718014        73.9609 
 616   0.0000       2.726521        74.1924 
 617   0.0000       2.733316        74.3773 
 618   0.0000       2.738718        74.5243 
 619   0.0000       2.741062        74.5881 
 620   0.0000       2.745867        74.7188 
 621   0.0000       2.753987        74.9398 
 622   0.0000       2.759593        75.0923 
 623   0.0000       2.765428        75.2511 
 624   0.0000       2.770741        75.3957 
 625   0.0000       2.778706        75.6124 
 626   0.0000       2.781397        75.6857 
 627   0.0000       2.791891        75.9712 
 628   0.0000       2.801077        76.2212 
 629   0.0000       2.802963        76.2725 
 630   0.0000       2.807134        76.3860 
 631   0.0000       2.810745        76.4843 
 632   0.0000       2.813788        76.5671 
 633   0.0000       2.823720        76.8373 
 634   0.0000       2.827551        76.9416 
 635   0.0000       2.830141        77.0121 
 636   0.0000       2.839906        77.2778 
 637   0.0000       2.843177        77.3668 
 638   0.0000       2.846656        77.4615 
 639   0.0000       2.850565        77.5678 
 640   0.0000       2.855799        77.7102 
 641   0.0000       2.868080        78.0444 
 642   0.0000       2.876980        78.2866 
 643   0.0000       2.881927        78.4212 
 644   0.0000       2.887321        78.5680 
 645   0.0000       2.891392        78.6788 
 646   0.0000       2.892655        78.7132 
 647   0.0000       2.895454        78.7893 
 648   0.0000       2.899907        78.9105 
 649   0.0000       2.907018        79.1040 
 650   0.0000       2.912102        79.2423 
 651   0.0000       2.914488        79.3073 
 652   0.0000       2.915269        79.3285 
 653   0.0000       2.925954        79.6193 
 654   0.0000       2.931204        79.7621 
 655   0.0000       2.939034        79.9752 
 656   0.0000       2.943772        80.1041 
 657   0.0000       2.952242        80.3346 
 658   0.0000       2.956776        80.4580 
 659   0.0000       2.958760        80.5120 
 660   0.0000       2.964250        80.6613 
 661   0.0000       2.981184        81.1221 
 662   0.0000       2.985630        81.2431 
 663   0.0000       2.992419        81.4279 
 664   0.0000       2.994559        81.4861 
 665   0.0000       3.001438        81.6733 
 666   0.0000       3.003888        81.7399 
 667   0.0000       3.010152        81.9104 
 668   0.0000       3.013689        82.0066 
 669   0.0000       3.021991        82.2326 
 670   0.0000       3.027292        82.3768 
 671   0.0000       3.035066        82.5884 
 672   0.0000       3.040540        82.7373 
 673   0.0000       3.045207        82.8643 
 674   0.0000       3.051232        83.0282 
 675   0.0000       3.052200        83.0546 
 676   0.0000       3.058510        83.2263 
 677   0.0000       3.065636        83.4202 
 678   0.0000       3.067987        83.4842 
 679   0.0000       3.078018        83.7571 
 680   0.0000       3.084648        83.9375 
 681   0.0000       3.085988        83.9740 
 682   0.0000       3.100619        84.3721 
 683   0.0000       3.108669        84.5912 
 684   0.0000       3.113231        84.7153 
 685   0.0000       3.117237        84.8243 
 686   0.0000       3.121811        84.9488 
 687   0.0000       3.124859        85.0317 
 688   0.0000       3.130956        85.1976 
 689   0.0000       3.135685        85.3263 
 690   0.0000       3.148158        85.6657 
 691   0.0000       3.152062        85.7720 
 692   0.0000       3.152932        85.7957 
 693   0.0000       3.157616        85.9231 
 694   0.0000       3.166113        86.1543 
 695   0.0000       3.171808        86.3093 
 696   0.0000       3.175622        86.4131 
 697   0.0000       3.185543        86.6830 
 698   0.0000       3.190640        86.8217 
 699   0.0000       3.193135        86.8896 
 700   0.0000       3.199345        87.0586 
 701   0.0000       3.206205        87.2453 
 702   0.0000       3.209186        87.3264 
 703   0.0000       3.215981        87.5113 
 704   0.0000       3.225377        87.7670 
 705   0.0000       3.229254        87.8725 
 706   0.0000       3.237415        88.0945 
 707   0.0000       3.240306        88.1732 
 708   0.0000       3.242106        88.2222 
 709   0.0000       3.249727        88.4296 
 710   0.0000       3.255259        88.5801 
 711   0.0000       3.256889        88.6245 
 712   0.0000       3.259043        88.6831 
 713   0.0000       3.262200        88.7690 
 714   0.0000       3.269363        88.9639 
 715   0.0000       3.270912        89.0060 
 716   0.0000       3.274956        89.1161 
 717   0.0000       3.281916        89.3055 
 718   0.0000       3.282497        89.3213 
 719   0.0000       3.288193        89.4763 
 720   0.0000       3.295173        89.6662 
 721   0.0000       3.303212        89.8850 
 722   0.0000       3.309467        90.0552 
[...]
 110   8.499     145.9   0.011333   0.009183  -1.992901  -1.394288     0.17 (  67->  73)    0.06 (  66->  73)    0.05 (  55->  70)
 111   8.522     145.5   0.015848   0.013673  -2.062777  -1.251657     0.06 (  46->  70)    0.06 (  62->  75)    0.04 (  63->  75)
 112   8.526     145.4   0.006745   0.005951   0.471917   0.122494     0.11 (  69->  96)    0.04 (  67->  73)    0.04 (  66->  90)
 113   8.534     145.3   0.009399   0.008445  20.679322  19.701827     0.09 (  67->  73)    0.05 (  55->  70)    0.04 (  66->  92)
 114   8.561     144.8   0.054444   0.050788  13.602853  13.532434     0.08 (  57->  71)    0.05 (  52->  70)    0.03 (  61->  77)
 115   8.574     144.6   0.009039   0.008704  -14.543914  -13.931753     0.14 (  62->  75)    0.11 (  63->  75)    0.07 (  46->  70)
 116   8.582     144.5   0.020500   0.018718  22.134048  19.680143     0.06 (  69->  75)    0.05 (  68->  93)    0.05 (  63->  75)
 117   8.590     144.3   0.097544   0.088696  42.692638  41.909954     0.07 (  69->  96)    0.07 (  69->  75)    0.05 (  60->  73)
 118   8.625     143.7   0.010756   0.009900  -12.079392  -12.134564     0.12 (  58->  72)    0.09 (  56->  72)    0.08 (  58->  79)
 119   8.639     143.5   0.150808   0.141136  -18.610301  -16.340113     0.10 (  69->  75)    0.06 (  69->  96)    0.04 (  65->  79)
 120   8.648     143.4   0.022242   0.019866  -35.083739  -33.484382     0.10 (  63->  79)    0.06 (  62->  83)    0.06 (  62->  79)
 121   8.661     143.1   0.143386   0.132804  25.231108  23.074422     0.04 (  65->  79)    0.04 (  69->  97)    0.04 (  64->  78)
 122   8.672     143.0   0.011112   0.011202  -11.507652  -11.393446     0.07 (  63->  78)    0.07 (  63->  84)    0.05 (  62->  75)
 123   8.682     142.8   0.059496   0.054256  -30.695662  -28.260615     0.07 (  59->  76)    0.05 (  60->  76)    0.03 (  59->  73)
 124   8.704     142.4   0.023503   0.022456  -14.758200  -14.926586     0.08 (  55->  77)    0.05 (  64->  78)    0.04 (  68->  75)
 125   8.719     142.2   0.012394   0.010850  22.983792  21.968002     0.08 (  62->  72)    0.08 (  68->  75)    0.04 (  63->  84)
 126   8.737     141.9   0.014905   0.014229  -8.717399  -8.374975     0.06 (  58->  72)    0.05 (  56->  71)    0.05 (  62->  79)
 127   8.751     141.7   0.005087   0.004451  -13.649835  -12.130390     0.09 (  67->  74)    0.09 (  67->  76)    0.05 (  67->  73)
 128   8.765     141.4   0.016285   0.014269  -7.900800  -7.359772     0.11 (  67->  76)    0.08 (  67->  74)    0.05 (  67->  73)
 129   8.770     141.4   0.002086   0.001595  -1.018408  -0.946779     0.05 (  69->  75)    0.05 (  68->  94)    0.04 (  69->  99)
 130   8.784     141.1   0.011307   0.009859  -11.915661  -11.811288     0.03 (  68->  94)    0.03 (  63->  72)    0.03 (  67->  95)
 131   8.796     141.0   0.031406   0.029899  38.742088  37.632795     0.07 (  63->  87)    0.06 (  63->  88)    0.05 (  64->  87)
 132   8.808     140.8   0.004158   0.003857   3.512837   4.107894     0.03 (  68->  96)    0.03 (  66->  95)    0.02 (  63->  88)
 133   8.819     140.6   0.000424   0.000272   5.279386   4.628960     0.17 (  67->  95)    0.10 (  67->  96)    0.07 (  66->  95)
 134   8.829     140.4   0.016048   0.014733  -22.569144  -21.712163     0.05 (  68->  94)    0.03 (  68->  96)    0.02 (  65->  78)
 135   8.831     140.4   0.002307   0.001859   4.380005   4.054893     0.12 (  68->  75)    0.03 (  68->  96)    0.03 (  68->  94)
 136   8.852     140.1   0.021205   0.019179  -26.146815  -24.635521     0.09 (  62->  84)    0.05 (  56->  71)    0.03 (  58->  71)
 137   8.863     139.9   0.039623   0.036795  56.884150  55.081681     0.05 (  39->  70)    0.05 (  59->  73)    0.05 (  59->  74)
 138   8.867     139.8   0.027805   0.024324  -4.644492  -4.751319     0.07 (  68->  75)    0.04 (  57->  72)    0.03 (  69->  85)
 139   8.889     139.5   0.007449   0.006905  -10.711948  -9.842542     0.12 (  62->  88)    0.11 (  62->  87)    0.10 (  62->  86)
 140   8.921     139.0   0.019592   0.015964   8.827279   8.046498     0.05 (  39->  70)    0.05 (  61->  81)    0.02 (  61->  74)
 141   8.925     138.9   0.018874   0.015906  22.996574  20.798520     0.06 (  68->  96)    0.04 (  61->  81)    0.03 (  68->  98)
 142   8.933     138.8   0.029605   0.024707  -42.835025  -38.716918     0.04 (  39->  70)    0.04 (  64->  79)    0.03 (  57->  73)
 143   8.965     138.3   0.019501   0.018110   6.272428   4.385966     0.04 (  59->  73)    0.03 (  69->  99)    0.03 (  61->  78)
 144   8.973     138.2   0.011640   0.011118  -19.563477  -20.100951     0.04 (  64->  85)    0.04 (  63->  85)    0.03 (  66->  95)
 145   8.991     137.9   0.009554   0.008101  12.680497  11.621393     0.08 (  68->  96)    0.05 (  68->  97)    0.05 (  60->  76)
 146   9.000     137.8   0.013276   0.012551  -38.041558  -36.144779     0.06 (  57->  74)    0.05 (  59->  76)    0.03 (  54->  70)
 147   9.023     137.4   0.002822   0.002427  18.388164  18.856367     0.04 (  68->  75)    0.04 (  59->  74)    0.03 (  59->  75)
 148   9.035     137.2   0.008563   0.008443  -12.229978  -10.831672     0.04 (  62->  84)    0.04 (  62->  88)    0.03 (  62->  85)
 149   9.043     137.1   0.003647   0.003483   4.674535   4.985234     0.04 (  37->  70)    0.04 (  59->  74)    0.03 (  58->  71)
 150   9.052     137.0   0.018442   0.016399  -25.055495  -25.093714     0.12 (  37->  70)    0.04 (  39->  70)    0.03 (  42->  70)
 151   9.068     136.7   0.029956   0.029157   8.345300   8.166400     0.05 (  54->  70)    0.04 (  62->  85)    0.03 (  62->  84)
 152   9.081     136.5   0.008564   0.007467   8.348562   8.610152     0.08 (  68->  96)    0.06 (  68->  97)    0.05 (  60->  75)
 153   9.102     136.2   0.019771   0.017611  12.890615  12.012025     0.07 (  54->  70)    0.05 (  54->  72)    0.04 (  62->  85)
 154   9.110     136.1   0.004711   0.004007  11.717223  10.170955     0.05 (  68->  79)    0.04 (  68->  75)    0.03 (  68->  97)
 155   9.142     135.6   0.011946   0.011120  20.159678  19.375900     0.06 (  50->  73)    0.06 (  53->  77)    0.05 (  53->  70)
 156   9.151     135.5   0.005374   0.004570  -6.906760  -6.989905     0.03 (  69->  99)    0.03 (  60->  75)    0.03 (  65->  92)
 157   9.158     135.4   0.002785   0.002663  -2.744101  -2.462427     0.46 (  51->  75)    0.10 (  56->  75)    0.07 (  58->  75)
 158   9.169     135.2   0.001396   0.001567  -0.655448  -1.300168     0.07 (  68->  97)    0.04 (  68->  85)    0.04 (  50->  73)
 159   9.181     135.0   0.041881   0.038399  22.275146  21.546680     0.05 (  68->  85)    0.04 (  68->  79)    0.03 (  50->  73)
 160   9.200     134.8   0.004252   0.003858  12.834035  12.380175     0.04 (  50->  73)    0.04 (  61->  72)    0.03 (  59->  78)
 161   9.242     134.2   0.002022   0.002699  21.393470  21.393749     0.04 (  64->  82)    0.04 (  65->  86)    0.04 (  66->  85)
 162   9.254     134.0   0.005971   0.005659  31.188099  30.387741     0.04 (  60->  75)    0.03 (  60->  79)    0.03 (  68->  75)
 163   9.259     133.9   0.006644   0.006283  -4.939793  -5.429347     0.14 (  53->  77)    0.03 (  37->  70)    0.03 (  53->  70)
 164   9.277     133.6   0.004388   0.004184  -12.151163  -11.352143     0.08 (  53->  70)    0.06 (  67->  77)    0.04 (  53->  77)
 165   9.280     133.6   0.011479   0.010595  -14.370631  -13.493838     0.07 (  53->  77)    0.05 (  53->  70)    0.03 (  64->  79)
 166   9.298     133.3   0.006608   0.006219  10.375561   9.278580     0.08 (  67->  77)    0.05 (  67->  79)    0.05 (  66->  77)
 167   9.332     132.9   0.016339   0.014357  -4.427422  -5.670710     0.03 (  57->  72)    0.03 (  61->  78)    0.03 (  55->  73)
 168   9.342     132.7   0.012909   0.012303  27.404528  26.684870     0.03 (  65->  84)    0.03 (  69->  83)    0.03 (  66->  77)
 169   9.362     132.4   0.003460   0.003345   3.572242   3.645064     0.07 (  68->  99)    0.04 (  65->  85)    0.04 (  67->  98)
 170   9.365     132.4   0.009255   0.008026  -2.823085  -1.793734     0.08 (  55->  71)    0.06 (  55->  73)    0.05 (  69->  86)
 171   9.370     132.3   0.000086   0.000089  -0.309535  -0.501066     0.65 (  49->  75)    0.11 (  51->  75)    0.04 (  49->  76)
 172   9.375     132.2   0.011763   0.010665  -20.977899  -19.911918     0.13 (  56->  74)    0.06 (  58->  76)    0.05 (  65->  84)
 173   9.389     132.1   0.012849   0.012845  -15.107402  -14.518457     0.10 (  69->  80)    0.04 (  64->  80)    0.04 (  67->  80)
 174   9.400     131.9   0.029277   0.025558  22.736577  22.803351     0.08 (  68->  99)    0.06 (  61->  74)    0.05 (  61->  78)
 175   9.421     131.6   0.005434   0.005223   8.778027   8.699928     0.05 (  56->  74)    0.03 (  68->  99)    0.02 (  55->  71)
 176   9.432     131.4   0.007470   0.006055  -14.000252  -12.863990     0.06 (  68->  99)    0.03 (  59->  84)    0.03 (  61->  77)
 177   9.438     131.4   0.011331   0.009881  -0.228238  -1.028881     0.07 (  61->  74)    0.06 (  61->  78)    0.04 (  63->  78)
 178   9.461     131.1   0.036604   0.033038   3.597875   3.863743     0.09 (  56->  76)    0.05 (  52->  72)    0.04 (  58->  74)
 179   9.468     131.0   0.018164   0.015873  -13.280889  -12.155709     0.05 (  55->  77)    0.04 (  63->  78)    0.04 (  59->  79)
 180   9.481     130.8   0.007246   0.006716   5.135579   4.616622     0.03 (  59->  84)    0.03 (  48->  73)    0.03 (  66->  90)
 181   9.502     130.5   0.015529   0.014341  -7.759396  -8.323806     0.05 (  67->  84)    0.03 (  45->  70)    0.03 (  60->  75)
 182   9.513     130.3   0.001491   0.001528   1.762262   2.200878     0.06 (  45->  70)    0.06 (  67-> 101)    0.06 (  67->  84)
 183   9.525     130.2   0.036876   0.033222  -24.107947  -25.089809     0.05 (  69-> 100)    0.04 (  69-> 103)    0.03 (  68->  99)
 184   9.531     130.1   0.002722   0.001751   5.147657   5.425672     0.05 (  69-> 102)    0.04 (  67->  84)    0.04 (  66->  77)
 185   9.544     129.9   0.008700   0.007672   6.060509   5.239421     0.07 (  44->  71)    0.03 (  34->  70)    0.03 (  59->  84)
 186   9.552     129.8   0.044042   0.040342  55.710367  54.737077     0.06 (  59->  84)    0.05 (  44->  71)    0.04 (  34->  70)
 187   9.568     129.6   0.021761   0.020405  14.231309  15.307082     0.05 (  60->  85)    0.02 (  67-> 101)    0.02 (  66->  98)
 188   9.578     129.4   0.021363   0.018826  11.439566  10.769258     0.04 (  67->  77)    0.04 (  65->  87)    0.04 (  67-> 101)
 189   9.589     129.3   0.001944   0.001958  -1.934591  -2.055485     0.06 (  67-> 101)    0.03 (  53->  77)    0.03 (  43->  71)
 190   9.611     129.0   0.015875   0.012145  -38.842491  -35.924243     0.06 (  59->  87)    0.05 (  67-> 101)    0.05 (  59->  88)
 191   9.619     128.9   0.013751   0.012174  -2.001671  -1.709364     0.08 (  62->  73)    0.04 (  67-> 101)    0.04 (  56->  72)
 192   9.635     128.7   0.016962   0.015097  14.198694  12.049117     0.04 (  67->  84)    0.03 (  60->  84)    0.03 (  67->  98)
 193   9.646     128.5   0.033405   0.027937  30.164583  28.777945     0.13 (  67-> 101)    0.04 (  66-> 101)    0.03 (  62->  73)
 194   9.652     128.5   0.017620   0.015207  -31.869109  -26.155570     0.10 (  45->  70)    0.09 (  67-> 101)    0.06 (  45->  71)
 195   9.666     128.3   0.056914   0.047039  29.674087  26.085226     0.07 (  62->  73)    0.04 (  63->  73)    0.03 (  69-> 100)
 196   9.667     128.3   0.004293   0.003454   2.087800   2.567882     0.10 (  67->  98)    0.09 (  69->  80)    0.04 (  69->  82)
 197   9.683     128.0   0.010828   0.009930  -16.084186  -16.238156     0.06 (  68-> 102)    0.05 (  54->  71)    0.05 (  54->  73)
 198   9.709     127.7   0.018357   0.013422   9.918907   8.705524     0.03 (  56->  72)    0.03 (  68-> 102)    0.02 (  69->  80)
 199   9.712     127.7   0.015269   0.012244  -29.080992  -25.976907     0.05 (  69-> 102)    0.04 (  62->  79)    0.04 (  56->  72)
 200   9.725     127.5   0.010584   0.008942  -20.601568  -18.933295     0.04 (  56->  72)    0.03 (  68-> 100)    0.03 (  57->  72)
 201   9.737     127.3   0.002430   0.001998  -5.752560  -7.095809     0.15 (  67->  77)    0.07 (  66->  77)    0.06 (  67->  79)
 202   9.740     127.3   0.021486   0.017891  12.786813  11.909184     0.08 (  67->  77)    0.04 (  42->  70)    0.04 (  67->  79)
 203   9.747     127.2   0.005772   0.004867   5.192979   4.645378     0.04 (  42->  70)    0.04 (  67->  77)    0.03 (  69->  80)
 204   9.760     127.0   0.005315   0.004508  -19.733203  -18.454853     0.04 (  67->  77)    0.03 (  65->  87)    0.03 (  59->  87)
 205   9.761     127.0   0.010987   0.011260  24.399281  26.449803     0.07 (  69->  84)    0.05 (  49->  80)    0.04 (  50->  70)
 206   9.775     126.8   0.011162   0.010342  -29.127941  -29.747142     0.10 (  69->  84)    0.06 (  69->  83)    0.03 (  50->  70)
 207   9.779     126.8   0.012424   0.013909  -59.779622  -61.838038     0.28 (  49->  80)    0.05 (  69->  80)    0.04 (  62->  82)
 208   9.784     126.7   0.019500   0.019059   3.942431   4.897793     0.09 (  49->  80)    0.07 (  69->  80)    0.03 (  69-> 103)
 209   9.791     126.6   0.037666   0.034622  -4.505411  -3.388416     0.06 (  69->  80)    0.05 (  69-> 102)    0.05 (  49->  80)
 210   9.797     126.6   0.022848   0.020171  11.381729  10.231141     0.05 (  42->  71)    0.04 (  42->  70)    0.03 (  68-> 100)
 211   9.805     126.5   0.002635   0.002292  24.979737  23.821248     0.11 (  49->  80)    0.02 (  69-> 102)    0.02 (  38->  70)
 212   9.808     126.4   0.027480   0.026221   0.013632  -2.906561     0.07 (  49->  80)    0.07 (  69->  80)    0.04 (  42->  70)
 213   9.816     126.3   0.006127   0.005705   8.382919   8.114483     0.06 (  62->  82)    0.04 (  58->  87)    0.04 (  58->  88)
 214   9.832     126.1   0.016059   0.012794  -12.596509  -9.419754     0.06 (  69->  80)    0.05 (  69->  99)    0.04 (  57->  76)
 215   9.840     126.0   0.001079   0.001014  -6.239743  -5.135216     0.12 (  69->  80)    0.07 (  69->  99)    0.03 (  65->  93)
 216   9.866     125.7   0.014699   0.011941  -23.452422  -24.058671     0.03 (  69-> 102)    0.03 (  65->  76)    0.03 (  57->  76)
 217   9.868     125.6   0.012168   0.012108  -3.022847  -2.595783     0.11 (  58->  87)    0.10 (  58->  88)    0.03 (  69-> 102)
 218   9.878     125.5   0.001592   0.001394   2.016142   1.490838     0.05 (  58->  87)    0.05 (  58->  88)    0.05 (  58->  73)
 219   9.894     125.3   0.017462   0.014119  11.601404  11.986967     0.07 (  60->  84)    0.03 (  68-> 102)    0.03 (  68-> 100)
 220   9.898     125.3   0.002268   0.002186  -0.766501  -0.242038     0.49 (  69->  82)    0.04 (  66->  82)    0.03 (  68->  82)
 221   9.910     125.1   0.017009   0.016474  -33.642049  -30.842316     0.05 (  66-> 101)    0.05 (  60->  84)    0.03 (  60->  85)
 222   9.921     125.0   0.005750   0.005083  27.219671  25.541752     0.05 (  68->  84)    0.05 (  68->  83)    0.04 (  68-> 102)
 223   9.931     124.8   0.003724   0.003868  -1.630099  -2.131612     0.08 (  56->  79)    0.04 (  43->  71)    0.04 (  56->  84)
 224   9.938     124.8   0.013636   0.010575  -3.186199  -4.041114     0.09 (  56->  84)    0.04 (  50->  70)    0.04 (  56->  75)
 225   9.950     124.6   0.011520   0.010773  -19.762672  -19.181672     0.08 (  68->  84)    0.06 (  68-> 102)    0.04 (  68->  83)
 226   9.955     124.5   0.002627   0.002277  -6.002933  -4.824114     0.11 (  68->  84)    0.06 (  68->  83)    0.04 (  40->  71)
 227   9.976     124.3   0.000120   0.000094  -0.353006  -0.359003     0.63 (  67->  78)    0.21 (  66->  78)    0.03 (  67->  77)
 228   9.986     124.2   0.005595   0.005083  -5.862374  -4.945182     0.05 (  69-> 103)    0.04 (  69->  86)    0.03 (  65->  93)

sTD-DFT done

Total run time:       33.595 sec

           *** ORCA-CIS/TD-DFT FINISHED WITHOUT ERROR ***


-------------------------------------------------------------------------------
                          DFT DISPERSION CORRECTION                            
                                                                               
                              DFTD3 V3.1  Rev 1                                
                              USING zero damping                               
-------------------------------------------------------------------------------
The omegaB97X-D3 functional is recognized. Fit by Chai et al.
Active option DFTDOPT                   ...         3   

molecular C6(AA) [au] = 33233.528066 


            DFT-D V3
 parameters
 s6 scaling factor         :     1.0000 
 rs6 scaling factor        :     1.2810 
 s8 scaling factor         :     1.0000 
 rs8 scaling factor        :     1.0940 
 Damping factor alpha6     :    14.0000 
 Damping factor alpha8     :    16.0000 
 ad hoc parameters k1-k3   :    16.0000     1.3333    -4.0000 

 Edisp/kcal,au: -12.084326795582  -0.019257598500 
 E6   /kcal   :  -5.605299768 
 E8   /kcal   :  -6.479027027 
 % E8         :  53.615125915 

-------------------------   ----------------
Dispersion correction           -0.019257599
-------------------------   ----------------


-------------------------   --------------------
FINAL SINGLE POINT ENERGY     -2066.847573143099
-------------------------   --------------------


                            ***************************************
                            *     ORCA property calculations      *
                            ***************************************

                                    ---------------------
                                    Active property flags
                                    ---------------------
   (+) Dipole Moment
   (+) Quadrupole Moment


------------------------------------------------------------------------------
                       ORCA ELECTRIC PROPERTIES CALCULATION
------------------------------------------------------------------------------

Dipole Moment Calculation                       ... on
Quadrupole Moment Calculation                   ... on
Polarizability Calculation                      ... off
GBWName                                         ... total_job2.gbw
Electron density file                           ... total_job2.scfp.tmp

-------------
DIPOLE MOMENT
-------------
                                X             Y             Z
Electronic contribution:      8.53618      -1.23574       3.97162
Nuclear contribution   :     -8.98610       1.35747      -3.51135
                        -----------------------------------------
Total Dipole Moment    :     -0.44992       0.12173       0.46027
                        -----------------------------------------
Magnitude (a.u.)       :      0.65505
Magnitude (Debye)      :      1.66501


------------------------
QUADRUPOLE MOMENT (A.U.)
------------------------

                XX           YY           ZZ           XY           XZ           YZ
  NUC     21356.50691    249.00243   3009.98360   1196.64236  -2914.43662   -445.20721
  EL     -21445.00206   -395.78822  -3139.81769  -1193.88561   2897.05822    441.12581
  TOT       -88.49516   -146.78579   -129.83408      2.75675    -17.37840     -4.08140

--------------------------------------------------------------------------
[[33280,1],6]: A high-performance Open MPI point-to-point messaging module
was unable to find any relevant network interfaces:

Module: OpenFabrics (openib)
  Host: cx1-105-9-1

Another transport will be used instead, although this may result in
lower performance.
--------------------------------------------------------------------------

Timings for individual modules:

Sum of individual times         ...      164.701 sec (=   2.745 min)
GTO integral calculation        ...        5.435 sec (=   0.091 min)   3.3 %
SCF iterations                  ...      123.013 sec (=   2.050 min)  74.7 %
CIS module                      ...       36.253 sec (=   0.604 min)  22.0 %



                             ****ORCA TERMINATED NORMALLY****
TOTAL RUN TIME: 0 days 0 hours 10 minutes 28 seconds 220 msec
