
                                 *****************
                                 * O   R   C   A *
                                 *****************

           --- An Ab Initio, DFT and Semiempirical electronic structure package ---

                  #######################################################
                  #                        -***-                        #
                  #  Department of molecular theory and spectroscopy    #
                  #              Directorship: Frank Neese              #
                  # Max Planck Institute for Chemical Energy Conversion #
                  #                  D-45470 Muelheim/Ruhr              #
                  #                       Germany                       #
                  #                                                     #
                  #                  All rights reserved                #
                  #                        -***-                        #
                  #######################################################


                         Program Version 4.0.0 -  RELEASE  -


 With contributions from (in alphabetic order):
   Daniel Aravena         : Magnetic Properties
   Michael Atanasov       : Ab Initio Ligand Field Theory
   Ute Becker             : Parallelization
   Martin Brehm           : Molecular dynamics
   Dmytro Bykov           : SCF Hessian
   Vijay G. Chilkuri      : MRCI spin determinant printing
   Dipayan Datta          : RHF DLPNO-CCSD density
   Achintya Kumar Dutta   : EOM-CC, STEOM-CC
   Dmitry Ganyushin       : Spin-Orbit,Spin-Spin,Magnetic field MRCI
   Yang Guo               : DLPNO-NEVPT2, CIM, IAO-localization
   Andreas Hansen         : Spin unrestricted coupled pair/coupled cluster methods
   Lee Huntington         : MR-EOM, pCC
   Robert Izsak           : Overlap fitted RIJCOSX, COSX-SCS-MP3, EOM
   Christian Kollmar      : KDIIS, OOCD, Brueckner-CCSD(T), CCSD density
   Simone Kossmann        : Meta GGA functionals, TD-DFT gradient, OOMP2, MP2 Hessian
   Martin Krupicka        : AUTO-CI
   Dagmar Lenk            : GEPOL surface
   Dimitrios Liakos       : Extrapolation schemes; parallel MDCI
   Dimitrios Manganas     : ROCIS; embedding schemes
   Dimitrios Pantazis     : SARC Basis sets
   Taras Petrenko         : DFT Hessian,TD-DFT gradient, ASA, ECA, R-Raman, ABS, FL, XAS/XES, NRVS
   Peter Pinski           : DLPNO-MP2
   Christoph Reimann      : Effective Core Potentials
   Marius Retegan         : Local ZFS, SOC
   Christoph Riplinger    : Optimizer, TS searches, QM/MM, DLPNO-CCSD(T), (RO)-DLPNO pert. Triples
   Tobias Risthaus        : Range-separated hybrids, TD-DFT gradient, RPA, STAB
   Michael Roemelt        : Restricted open shell CIS
   Masaaki Saitow         : Open-shell DLPNO
   Barbara Sandhoefer     : DKH picture change effects
   Kantharuban Sivalingam : CASSCF convergence, NEVPT2, FIC-MRCI
   Georgi Stoychev        : AutoAux
   Boris Wezisla          : Elementary symmetry handling
   Frank Wennmohs         : Technical directorship


 We gratefully acknowledge several colleagues who have allowed us to
 interface, adapt or use parts of their codes:
   Stefan Grimme, W. Hujo, H. Kruse,             : VdW corrections, initial TS optimization,
                  C. Bannwarth                     DFT functionals, gCP, sTDA/sTD-DF
   Ed Valeev                                     : LibInt (2-el integral package), F12 methods
   Garnet Chan, S. Sharma, J. Yang, R. Olivares  : DMRG
   Ulf Ekstrom                                   : XCFun DFT Library
   Mihaly Kallay                                 : mrcc  (arbitrary order and MRCC methods)
   Jiri Pittner, Ondrej Demel                    : Mk-CCSD
   Frank Weinhold                                : gennbo (NPA and NBO analysis)
   Christopher J. Cramer and Donald G. Truhlar   : smd solvation model


 Your calculation uses the libint2 library for the computation of 2-el integrals
 For citations please refer to: http://libint.valeyev.net

 This ORCA versions uses:
   CBLAS   interface :  Fast vector & matrix operations
   LAPACKE interface :  Fast linear algebra routines
   SCALAPACK package :  Parallel linear algebra routines


Your calculation utilizes the atom-pairwise dispersion correction
with the zero-damping scheme (D30)
Cite in your paper:
S.Grimme, J.Antony, S.Ehrlich and H.Krieg, J.Chem.Phys., 132, (2010), 154104 
   

XCFun DFT library Copyright 2009-2010 Ulf Ekstrom and contributors.
See http://admol.org/xcfun for more information. This is free soft-
ware; see the source code for copying conditions. There is ABSOLUTELY
NO WARRANTY; not even for MERCHANTABILITY or FITNESS FOR A PARTICULAR
PURPOSE. For details see the documentation. Scientific users of this 
library should cite U. Ekstrom, L. Visscher, R. Bast, A. J. Thorvald-
sen and K. Ruud; J.Chem.Theor.Comp. 2010, DOI: 10.1021/ct100117s
XCFun Version 0.99 
Your calculation utilizes the basis: def2-TZVP
   F. Weigend and R. Ahlrichs, Phys. Chem. Chem. Phys. 7, 3297 (2005).

Your calculation utilizes the auxiliary basis: def2/J
   F. Weigend, Phys. Chem. Chem. Phys. 8, 1057 (2006).

================================================================================
                                        WARNINGS
                       Please study these warnings very carefully!
================================================================================

Warning: TCutStore was < 0. Adjusted to Thresh (uncritical)
INFO   : Checking CIS options ...

WARNING: CIS/ROCIS methods need fully converged wavefunctions
  ===> : Setting SCFConvForced true
         You can overwrite this default with %scf ConvForced false 


INFO   : the flag for use of LIBINT has been found!

Your calculation utilizes the atom-pairwise dispersion correction
with the zero-damping scheme (D30)
Cite in your paper:
S.Grimme, J.Antony, S.Ehrlich and H.Krieg, J.Chem.Phys., 132, (2010), 154104 
   

XCFun DFT library Copyright 2009-2010 Ulf Ekstrom and contributors.
See http://admol.org/xcfun for more information. This is free soft-
ware; see the source code for copying conditions. There is ABSOLUTELY
NO WARRANTY; not even for MERCHANTABILITY or FITNESS FOR A PARTICULAR
PURPOSE. For details see the documentation. Scientific users of this 
library should cite U. Ekstrom, L. Visscher, R. Bast, A. J. Thorvald-
sen and K. Ruud; J.Chem.Theor.Comp. 2010, DOI: 10.1021/ct100117s
XCFun Version 0.99 
Your calculation utilizes the basis: def2-TZVP
   F. Weigend and R. Ahlrichs, Phys. Chem. Chem. Phys. 7, 3297 (2005).

Your calculation utilizes the auxiliary basis: def2/J
   F. Weigend, Phys. Chem. Chem. Phys. 8, 1057 (2006).

================================================================================
                                        WARNINGS
                       Please study these warnings very carefully!
================================================================================

INFO   : Checking CIS options ...

INFO   : the flag for use of LIBINT has been found!

================================================================================
                                       INPUT FILE
================================================================================
NAME = total.inp
|  1> # 
|  2> !wB97X-D3 def2-TZVP def2/J RIJCOSX Grid5 FinalGrid6 TightSCF
|  3> %pal 
|  4>  nprocs 24
|  5> end
|  6> %tddft
|  7>   Mode sTDDFT
|  8>   nroots 2
|  9>   Ethresh 10.0
| 10>   maxcore 5000
| 11>   triplets true
| 12> end
| 13> * xyz 0 1 
| 14> C -4.66992838 -2.13394931 -2.18721577
| 15> C -3.94349444 -1.34459613 -1.29934561
| 16> C -4.63452228 -0.50877083 -0.40127776
| 17> C -6.05678762 -0.48852914 -0.45505167
| 18> C -6.79126786 -1.28735415 -1.34478659
| 19> C -6.07556276 -2.11309487 -2.20763872
| 20> C -4.24626213 0.44979530 0.62230870
| 21> C -5.46018301 1.01634643 1.11211292
| 22> N -6.53143323 0.42663747 0.46800765
| 23> C -5.49602804 2.02885504 2.08246504
| 24> C -4.27629253 2.49641550 2.56606011
| 25> C -3.06697005 1.95520363 2.11055517
| 26> C -3.01710328 0.92104224 1.15710239
| 27> H -2.13411663 2.32716122 2.52549088
| 28> H -7.50564642 0.65647104 0.62139945
| 29> H -4.25827199 3.28542833 3.31228354
| 30> H -2.85906694 -1.37885691 -1.31398132
| 31> H -7.87732660 -1.25601708 -1.36270566
| 32> H -6.60974084 -2.74535399 -2.91174437
| 33> H -4.14033853 -2.78092394 -2.88099682
| 34> C 4.05285217 -0.25152860 -0.06313502
| 35> N 3.84404017 1.00882733 0.35155364
| 36> O 2.50514014 1.13833957 0.54818497
| 37> C 1.87896907 -0.01682444 0.26377201
| 38> C 2.81105347 -0.95304256 -0.13525767
| 39> C 0.43172939 -0.06822244 0.41667496
| 40> N -0.26910088 -1.18213579 0.15592863
| 41> O -1.57287133 -0.88330302 0.39694869
| 42> C -1.69763712 0.39093648 0.79714581
| 43> C -0.44286433 0.97190097 0.84228433
| 44> H -0.18594193 1.98564044 1.11212651
| 45> H 2.63208292 -1.97690303 -0.43106365
| 46> C 5.37966410 -0.75609002 -0.37450005
| 47> S 5.63451924 -2.39805815 -0.91255874
| 48> C 7.35311303 -2.20779659 -1.05464497
| 49> C 7.73146998 -0.91517479 -0.69875221
| 50> C 6.61187567 -0.08411238 -0.31057677
| 51> N 9.02615851 -0.42751502 -0.69919292
| 52> C 9.15374448 0.83349396 -0.32374767
| 53> C 8.03982271 1.65917935 0.06209890
| 54> N 6.78939679 1.22763033 0.07471366
| 55> H 10.16582549 1.25866304 -0.31047032
| 56> H 8.22119571 2.69889112 0.36274055
| 57> H -6.43888105 2.43796611 2.43415419
| 58> H 7.99488715 -3.01647175 -1.37996842
| 59> *
| 60> $new_job
| 61> # 
| 62> !wB97X-D3 def2-TZVP def2/J RIJCOSX Grid5 FinalGrid6 TightSCF
| 63> %pal 
| 64>  nprocs 24
| 65> end
| 66> %elprop
| 67>    dipole     true
| 68>    quadrupole true
| 69> end
| 70> %tddft
| 71>   Mode sTDDFT
| 72>   nroots 2
| 73>   Ethresh 10.0
| 74>   maxcore 5000
| 75> end
| 76> * xyz 0 1 
| 77> C -4.66992838 -2.13394931 -2.18721577
| 78> C -3.94349444 -1.34459613 -1.29934561
| 79> C -4.63452228 -0.50877083 -0.40127776
| 80> C -6.05678762 -0.48852914 -0.45505167
| 81> C -6.79126786 -1.28735415 -1.34478659
| 82> C -6.07556276 -2.11309487 -2.20763872
| 83> C -4.24626213 0.44979530 0.62230870
| 84> C -5.46018301 1.01634643 1.11211292
| 85> N -6.53143323 0.42663747 0.46800765
| 86> C -5.49602804 2.02885504 2.08246504
| 87> C -4.27629253 2.49641550 2.56606011
| 88> C -3.06697005 1.95520363 2.11055517
| 89> C -3.01710328 0.92104224 1.15710239
| 90> H -2.13411663 2.32716122 2.52549088
| 91> H -7.50564642 0.65647104 0.62139945
| 92> H -4.25827199 3.28542833 3.31228354
| 93> H -2.85906694 -1.37885691 -1.31398132
| 94> H -7.87732660 -1.25601708 -1.36270566
| 95> H -6.60974084 -2.74535399 -2.91174437
| 96> H -4.14033853 -2.78092394 -2.88099682
| 97> C 4.05285217 -0.25152860 -0.06313502
| 98> N 3.84404017 1.00882733 0.35155364
| 99> O 2.50514014 1.13833957 0.54818497
|100> C 1.87896907 -0.01682444 0.26377201
|101> C 2.81105347 -0.95304256 -0.13525767
|102> C 0.43172939 -0.06822244 0.41667496
|103> N -0.26910088 -1.18213579 0.15592863
|104> O -1.57287133 -0.88330302 0.39694869
|105> C -1.69763712 0.39093648 0.79714581
|106> C -0.44286433 0.97190097 0.84228433
|107> H -0.18594193 1.98564044 1.11212651
|108> H 2.63208292 -1.97690303 -0.43106365
|109> C 5.37966410 -0.75609002 -0.37450005
|110> S 5.63451924 -2.39805815 -0.91255874
|111> C 7.35311303 -2.20779659 -1.05464497
|112> C 7.73146998 -0.91517479 -0.69875221
|113> C 6.61187567 -0.08411238 -0.31057677
|114> N 9.02615851 -0.42751502 -0.69919292
|115> C 9.15374448 0.83349396 -0.32374767
|116> C 8.03982271 1.65917935 0.06209890
|117> N 6.78939679 1.22763033 0.07471366
|118> H 10.16582549 1.25866304 -0.31047032
|119> H 8.22119571 2.69889112 0.36274055
|120> H -6.43888105 2.43796611 2.43415419
|121> H 7.99488715 -3.01647175 -1.37996842
|122> *
|123> 
|124>                          ****END OF INPUT****
================================================================================


                 $$$$$$$$$$$$$$$$$$$$$$$$$$$$$$$$$$$$$$$$$$$$$$ 
                 $ THERE ARE  2 JOBS TO BE PROCESSED THIS RUN $
                 $$$$$$$$$$$$$$$$$$$$$$$$$$$$$$$$$$$$$$$$$$$$$$ 




                 $$$$$$$$$$$$$$$$  JOB NUMBER  1 $$$$$$$$$$$$$$


                       ****************************
                       * Single Point Calculation *
                       ****************************

---------------------------------
CARTESIAN COORDINATES (ANGSTROEM)
---------------------------------
  C     -4.669928   -2.133949   -2.187216
  C     -3.943494   -1.344596   -1.299346
  C     -4.634522   -0.508771   -0.401278
  C     -6.056788   -0.488529   -0.455052
  C     -6.791268   -1.287354   -1.344787
  C     -6.075563   -2.113095   -2.207639
  C     -4.246262    0.449795    0.622309
  C     -5.460183    1.016346    1.112113
  N     -6.531433    0.426637    0.468008
  C     -5.496028    2.028855    2.082465
  C     -4.276293    2.496415    2.566060
  C     -3.066970    1.955204    2.110555
  C     -3.017103    0.921042    1.157102
  H     -2.134117    2.327161    2.525491
  H     -7.505646    0.656471    0.621399
  H     -4.258272    3.285428    3.312284
  H     -2.859067   -1.378857   -1.313981
  H     -7.877327   -1.256017   -1.362706
  H     -6.609741   -2.745354   -2.911744
  H     -4.140339   -2.780924   -2.880997
  C      4.052852   -0.251529   -0.063135
  N      3.844040    1.008827    0.351554
  O      2.505140    1.138340    0.548185
  C      1.878969   -0.016824    0.263772
  C      2.811053   -0.953043   -0.135258
  C      0.431729   -0.068222    0.416675
  N     -0.269101   -1.182136    0.155929
  O     -1.572871   -0.883303    0.396949
  C     -1.697637    0.390936    0.797146
  C     -0.442864    0.971901    0.842284
  H     -0.185942    1.985640    1.112127
  H      2.632083   -1.976903   -0.431064
  C      5.379664   -0.756090   -0.374500
  S      5.634519   -2.398058   -0.912559
  C      7.353113   -2.207797   -1.054645
  C      7.731470   -0.915175   -0.698752
  C      6.611876   -0.084112   -0.310577
  N      9.026159   -0.427515   -0.699193
  C      9.153744    0.833494   -0.323748
  C      8.039823    1.659179    0.062099
  N      6.789397    1.227630    0.074714
  H     10.165825    1.258663   -0.310470
  H      8.221196    2.698891    0.362741
  H     -6.438881    2.437966    2.434154
  H      7.994887   -3.016472   -1.379968

----------------------------
CARTESIAN COORDINATES (A.U.)
----------------------------
  NO LB      ZA    FRAG     MASS         X           Y           Z
   0 C     6.0000    0    12.011   -8.824886   -4.032580   -4.133239
   1 C     6.0000    0    12.011   -7.452125   -2.540918   -2.455407
   2 C     6.0000    0    12.011   -8.757978   -0.961438   -0.758305
   3 C     6.0000    0    12.011  -11.445670   -0.923186   -0.859923
   4 C     6.0000    0    12.011  -12.833636   -2.432747   -2.541278
   5 C     6.0000    0    12.011  -11.481150   -3.993171   -4.171833
   6 C     6.0000    0    12.011   -8.024273    0.849990    1.175993
   7 C     6.0000    0    12.011  -10.318251    1.920616    2.101589
   8 N     7.0000    0    14.007  -12.342620    0.806228    0.884406
   9 C     6.0000    0    12.011  -10.385988    3.833980    3.935289
  10 C     6.0000    0    12.011   -8.081022    4.717542    4.849151
  11 C     6.0000    0    12.011   -5.795733    3.694799    3.988371
  12 C     6.0000    0    12.011   -5.701499    1.740518    2.186607
  13 H     1.0000    0     1.008   -4.032896    4.397697    4.772486
  14 H     1.0000    0     1.008  -14.183616    1.240550    1.174275
  15 H     1.0000    0     1.008   -8.046968    6.208560    6.259309
  16 H     1.0000    0     1.008   -5.402854   -2.605662   -2.483065
  17 H     1.0000    0     1.008  -14.885990   -2.373528   -2.575140
  18 H     1.0000    0     1.008  -12.490600   -5.187967   -5.502399
  19 H     1.0000    0     1.008   -7.824106   -5.255185   -5.444295
  20 C     6.0000    0    12.011    7.658781   -0.475320   -0.119308
  21 N     7.0000    0    14.007    7.264183    1.906407    0.664340
  22 O     8.0000    0    15.999    4.734029    2.151150    1.035919
  23 C     6.0000    0    12.011    3.550737   -0.031794    0.498457
  24 C     6.0000    0    12.011    5.312121   -1.800989   -0.255600
  25 C     6.0000    0    12.011    0.815850   -0.128922    0.787402
  26 N     7.0000    0    14.007   -0.508527   -2.233913    0.294662
  27 O     8.0000    0    15.999   -2.972296   -1.669201    0.750124
  28 C     6.0000    0    12.011   -3.208069    0.738763    1.506387
  29 C     6.0000    0    12.011   -0.836892    1.836627    1.591687
  30 H     1.0000    0     1.008   -0.351379    3.752317    2.101615
  31 H     1.0000    0     1.008    4.973916   -3.735805   -0.814592
  32 C     6.0000    0    12.011   10.166092   -1.428803   -0.707703
  33 S    16.0000    0    32.060   10.647698   -4.531673   -1.724486
  34 C     6.0000    0    12.011   13.895370   -4.172131   -1.992990
  35 C     6.0000    0    12.011   14.610361   -1.729430   -1.320450
  36 C     6.0000    0    12.011   12.494634   -0.158949   -0.586905
  37 N     7.0000    0    14.007   17.056968   -0.807886   -1.321283
  38 C     6.0000    0    12.011   17.298070    1.575075   -0.611794
  39 C     6.0000    0    12.011   15.193063    3.135395    0.117350
  40 N     7.0000    0    14.007   12.830101    2.319885    0.141188
  41 H     1.0000    0     1.008   19.210626    2.378528   -0.586704
  42 H     1.0000    0     1.008   15.535808    5.100165    0.685480
  43 H     1.0000    0     1.008  -12.167722    4.607088    4.599885
  44 H     1.0000    0     1.008   15.108147   -5.700305   -2.607762

--------------------------------
INTERNAL COORDINATES (ANGSTROEM)
--------------------------------
 C      0   0   0     0.000000000000     0.00000000     0.00000000
 C      1   0   0     1.392515038690     0.00000000     0.00000000
 C      2   1   0     1.408065790714   119.15216628     0.00000000
 C      3   2   1     1.423425465831   118.34049090   358.92173566
 C      4   3   2     1.403285732636   122.60411447     1.40516929
 C      5   4   3     1.392334487498   117.48269124   359.32538384
 C      3   2   1     1.455102817933   135.13335373   181.51745518
 C      7   3   2     1.426356287796   106.02965734   176.48905890
 N      8   7   3     1.382101765499   109.27725194     1.58496969
 C      8   7   3     1.402869127285   123.08934561   182.54517345
 C     10   8   7     1.392921997040   117.38925048     0.65289194
 C     11  10   8     1.401019592735   120.88436280   359.00308899
 C     12  11  10     1.407497310479   122.32068735   359.75767426
 H     12  11  10     1.086618422169   118.98907360   181.39906104
 H      9   8   7     1.012642016596   125.32689163   180.86768982
 H     11  10   8     1.086147040344   119.79478767   179.50627808
 H      2   1   3     1.085067282619   119.66080788   180.33760111
 H      5   4   3     1.086658498221   121.14131574   179.73750901
 H      6   5   4     1.086675012291   119.59850546   180.07049996
 H      1   2   3     1.086450057032   119.36868930   180.06213997
 C     17   2   1     7.114078392029   164.50102879   177.10730769
 N     21  17   2     1.343155317289    92.97699503   333.68764072
 O     22  21  17     1.359444956805   106.68840262    13.20743126
 C     23  22  21     1.344390133377   110.25922665     0.00000000
 C     24  23  22     1.380039993066   109.23859554     0.00000000
 C     24  23  22     1.456201825946   118.10011985   180.01641968
 N     26  24  23     1.341623891881   121.87432201   180.10474854
 O     27  26  24     1.359120701057   106.50396959   180.11809940
 C     28  27  26     1.341421089953   110.54779503     0.18730785
 C     29  28  27     1.383478217809   108.92169715   359.41140909
 H     30  29  28     1.080042422669   128.17418985   179.27721234
 H     25  24  23     1.080658085427   127.59202865   179.98106226
 C     21  17   2     1.453258513152   142.59461286   172.23256115
 S     33  21  17     1.746573112184   121.71027984   337.93010012
 C     34  33  21     1.734921489001    93.82309620   180.00087801
 C     35  34  33     1.393084619134   110.47968091     0.00000000
 C     33  21  17     1.404985938587   128.67592159   157.93212505
 N     36  35  34     1.383484960242   125.53147043   179.99953150
 C     38  36  35     1.321885381994   115.24478422   180.00062681
 C     39  38  36     1.439255240922   123.27865481     0.00000000
 N     40  39  38     1.322860034259   123.16032181     0.00000000
 H     39  38  36     1.097840154765   117.50694342   179.99919897
 H     40  39  38     1.097397891159   119.27890946   180.00050829
 H     10   8   7     1.086291362522   121.19355098   180.04216564
 H     35  34  33     1.082434701320   122.00564961   179.99729134

---------------------------
INTERNAL COORDINATES (A.U.)
---------------------------
 C      0   0   0     0.000000000000     0.00000000     0.00000000
 C      1   0   0     2.631472060491     0.00000000     0.00000000
 C      2   1   0     2.660858722993   119.15216628     0.00000000
 C      3   2   1     2.689884302470   118.34049090   358.92173566
 C      4   3   2     2.651825722321   122.60411447     1.40516929
 C      5   4   3     2.631130868186   117.48269124   359.32538384
 C      3   2   1     2.749745822590   135.13335373   181.51745518
 C      7   3   2     2.695422753330   106.02965734   176.48905890
 N      8   7   3     2.611793826003   109.27725194     1.58496969
 C      8   7   3     2.651038452301   123.08934561   182.54517345
 C     10   8   7     2.632241100321   117.38925048     0.65289194
 C     11  10   8     2.647543338527   120.88436280   359.00308899
 C     12  11  10     2.659784451037   122.32068735   359.75767426
 H     12  11  10     2.053411229973   118.98907360   181.39906104
 H      9   8   7     1.913616083069   125.32689163   180.86768982
 H     11  10   8     2.052520447419   119.79478767   179.50627808
 H      2   1   3     2.050480001028   119.66080788   180.33760111
 H      5   4   3     2.053486962736   121.14131574   179.73750901
 H      6   5   4     2.053518169805   119.59850546   180.07049996
 H      1   2   3     2.053093065974   119.36868930   180.06213997
 C     17   2   1    13.443659856182   164.50102879   177.10730769
 N     21  17   2     2.538195704997    92.97699503   333.68764072
 O     22  21  17     2.568978662501   106.68840262    13.20743126
 C     23  22  21     2.540529169228   110.25922665     0.00000000
 C     24  23  22     2.607897640753   109.23859554     0.00000000
 C     24  23  22     2.751822646754   118.10011985   180.01641968
 N     26  24  23     2.535301730380   121.87432201   180.10474854
 O     27  26  24     2.568365907941   106.50396959   180.11809940
 C     28  27  26     2.534918490277   110.54779503     0.18730785
 C     29  28  27     2.614394943905   108.92169715   359.41140909
 H     30  29  28     2.040984391861   128.17418985   179.27721234
 H     25  24  23     2.042147825866   127.59202865   179.98106226
 C     21  17   2     2.746260591647   142.59461286   172.23256115
 S     33  21  17     3.300544854899   121.71027984   337.93010012
 C     34  33  21     3.278526478066    93.82309620   180.00087801
 C     35  34  33     2.632548411542   110.47968091     0.00000000
 C     33  21  17     2.655038645940   128.67592159   157.93212505
 N     36  35  34     2.614407685256   125.53147043   179.99953150
 C     38  36  35     2.498001352402   115.24478422   180.00062681
 C     39  38  36     2.719798242153   123.27865481     0.00000000
 N     40  39  38     2.499843178260   123.16032181     0.00000000
 H     39  38  36     2.074617231327   117.50694342   179.99919897
 H     40  39  38     2.073781474233   119.27890946   180.00050829
 H     10   8   7     2.052793176811   121.19355098   180.04216564
 H     35  34  33     2.045505143349   122.00564961   179.99729134

---------------------
BASIS SET INFORMATION
---------------------
There are 5 groups of distinct atoms

 Group   1 Type C   : 11s6p2d1f contracted to 5s3p2d1f pattern {62111/411/11/1}
 Group   2 Type N   : 11s6p2d1f contracted to 5s3p2d1f pattern {62111/411/11/1}
 Group   3 Type H   : 5s1p contracted to 3s1p pattern {311/1}
 Group   4 Type O   : 11s6p2d1f contracted to 5s3p2d1f pattern {62111/411/11/1}
 Group   5 Type S   : 14s9p3d1f contracted to 5s5p2d1f pattern {73211/51111/21/1}

Atom   0C    basis set group =>   1
Atom   1C    basis set group =>   1
Atom   2C    basis set group =>   1
Atom   3C    basis set group =>   1
Atom   4C    basis set group =>   1
Atom   5C    basis set group =>   1
Atom   6C    basis set group =>   1
Atom   7C    basis set group =>   1
Atom   8N    basis set group =>   2
Atom   9C    basis set group =>   1
Atom  10C    basis set group =>   1
Atom  11C    basis set group =>   1
Atom  12C    basis set group =>   1
Atom  13H    basis set group =>   3
Atom  14H    basis set group =>   3
Atom  15H    basis set group =>   3
Atom  16H    basis set group =>   3
Atom  17H    basis set group =>   3
Atom  18H    basis set group =>   3
Atom  19H    basis set group =>   3
Atom  20C    basis set group =>   1
Atom  21N    basis set group =>   2
Atom  22O    basis set group =>   4
Atom  23C    basis set group =>   1
Atom  24C    basis set group =>   1
Atom  25C    basis set group =>   1
Atom  26N    basis set group =>   2
Atom  27O    basis set group =>   4
Atom  28C    basis set group =>   1
Atom  29C    basis set group =>   1
Atom  30H    basis set group =>   3
Atom  31H    basis set group =>   3
Atom  32C    basis set group =>   1
Atom  33S    basis set group =>   5
Atom  34C    basis set group =>   1
Atom  35C    basis set group =>   1
Atom  36C    basis set group =>   1
Atom  37N    basis set group =>   2
Atom  38C    basis set group =>   1
Atom  39C    basis set group =>   1
Atom  40N    basis set group =>   2
Atom  41H    basis set group =>   3
Atom  42H    basis set group =>   3
Atom  43H    basis set group =>   3
Atom  44H    basis set group =>   3
-------------------------------
AUXILIARY BASIS SET INFORMATION
-------------------------------
There are 5 groups of distinct atoms

 Group   1 Type C   : 12s5p4d2f1g contracted to 6s4p3d1f1g pattern {711111/2111/211/2/1}
 Group   2 Type N   : 12s5p4d2f1g contracted to 6s4p3d1f1g pattern {711111/2111/211/2/1}
 Group   3 Type H   : 5s2p1d contracted to 3s1p1d pattern {311/2/1}
 Group   4 Type O   : 12s5p4d2f1g contracted to 6s4p3d1f1g pattern {711111/2111/211/2/1}
 Group   5 Type S   : 14s5p5d2f1g contracted to 8s4p3d1f1g pattern {71111111/2111/311/2/1}

Atom   0C    basis set group =>   1
Atom   1C    basis set group =>   1
Atom   2C    basis set group =>   1
Atom   3C    basis set group =>   1
Atom   4C    basis set group =>   1
Atom   5C    basis set group =>   1
Atom   6C    basis set group =>   1
Atom   7C    basis set group =>   1
Atom   8N    basis set group =>   2
Atom   9C    basis set group =>   1
Atom  10C    basis set group =>   1
Atom  11C    basis set group =>   1
Atom  12C    basis set group =>   1
Atom  13H    basis set group =>   3
Atom  14H    basis set group =>   3
Atom  15H    basis set group =>   3
Atom  16H    basis set group =>   3
Atom  17H    basis set group =>   3
Atom  18H    basis set group =>   3
Atom  19H    basis set group =>   3
Atom  20C    basis set group =>   1
Atom  21N    basis set group =>   2
Atom  22O    basis set group =>   4
Atom  23C    basis set group =>   1
Atom  24C    basis set group =>   1
Atom  25C    basis set group =>   1
Atom  26N    basis set group =>   2
Atom  27O    basis set group =>   4
Atom  28C    basis set group =>   1
Atom  29C    basis set group =>   1
Atom  30H    basis set group =>   3
Atom  31H    basis set group =>   3
Atom  32C    basis set group =>   1
Atom  33S    basis set group =>   5
Atom  34C    basis set group =>   1
Atom  35C    basis set group =>   1
Atom  36C    basis set group =>   1
Atom  37N    basis set group =>   2
Atom  38C    basis set group =>   1
Atom  39C    basis set group =>   1
Atom  40N    basis set group =>   2
Atom  41H    basis set group =>   3
Atom  42H    basis set group =>   3
Atom  43H    basis set group =>   3
Atom  44H    basis set group =>   3
-------------------------
ECP PARAMETER INFORMATION
-------------------------



--------------------------------------------------------------------------
[[48988,1],3]: A high-performance Open MPI point-to-point messaging module
was unable to find any relevant network interfaces:

Module: OpenFabrics (openib)
  Host: cx1-103-13-1

Another transport will be used instead, although this may result in
lower performance.
--------------------------------------------------------------------------


           ************************************************************
           *        Program running with 24 parallel MPI-processes    *
           *              working on a common directory               *
           ************************************************************
------------------------------------------------------------------------------
                           ORCA GTO INTEGRAL CALCULATION
                           -- RI-GTO INTEGRALS CHOSEN --
------------------------------------------------------------------------------

                         BASIS SET STATISTICS AND STARTUP INFO

Gaussian basis set:
 # of primitive gaussian shells          ...  725
 # of primitive gaussian functions       ... 1593
 # of contracted shells                  ...  406
 # of contracted basis functions         ... 1076
 Highest angular momentum                ...    3
 Maximum contraction depth               ...    7
Auxiliary gaussian basis set:
 # of primitive gaussian shells          ...  875
 # of primitive gaussian functions       ... 2455
 # of contracted shells                  ...  547
 # of contracted aux-basis functions     ... 1713
 Highest angular momentum                ...    4
 Maximum contraction depth               ...    7
Ratio of auxiliary to basis functions    ...  1.59
Integral package used                  ... LIBINT
 One Electron integrals                  
   ECP integrals                         ... done
 Ordering auxiliary basis shells         ... done
 Integral threshhold             Thresh  ...  2.500e-11
 Primitive cut-off               TCut    ...  2.500e-12
 Pre-screening matrix                    ... done
 Shell pair data                         ... 
 Ordering of the shell pairs             ... done (   0.010 sec) 42198 of 82621 pairs
 Determination of significant pairs      ... done (   0.000 sec)
 Creation of shell pair data             ... done (   0.007 sec)
 Storage of shell pair data              ... done (   0.105 sec)
 Shell pair data done in (   0.122 sec)
 Computing two index integrals           ... done
 Cholesky decomposition of the V-matrix  ... done


Timings:
 Total evaluation time                   ...   4.282 sec (  0.071 min)
 One electron matrix time                ...   1.241 sec (  0.021 min) = 29.0%
 Schwartz matrix evaluation time         ...   1.783 sec (  0.030 min) = 41.6%
 Two index repulsion integral time       ...   0.575 sec (  0.010 min) = 13.4%
 Cholesky decomposition of V             ...   0.524 sec (  0.009 min) = 12.2%
 Three index repulsion integral time     ...   0.000 sec (  0.000 min) =  0.0%

--------------------------------------------------------------------------
[[49133,1],9]: A high-performance Open MPI point-to-point messaging module
was unable to find any relevant network interfaces:

Module: OpenFabrics (openib)
  Host: cx1-103-13-1

Another transport will be used instead, although this may result in
lower performance.
--------------------------------------------------------------------------


           ************************************************************
           *        Program running with 24 parallel MPI-processes    *
           *              working on a common directory               *
           ************************************************************
-------------------------------------------------------------------------------
                                 ORCA SCF
-------------------------------------------------------------------------------

------------
SCF SETTINGS
------------
Hamiltonian:
 Density Functional     Method          .... DFT(GTOs)
 Exchange Functional    Exchange        .... WB97X-D3
 Correlation Functional Correlation     .... WB97X-D3
 Gradients option       PostSCFGGA      .... off
 Hybrid DFT is turned on
   Fraction HF Exchange ScalHFX         ....  0.195728
   Scaling of DF-GGA-X  ScalDFX         ....  0.000000
   Scaling of DF-GGA-C  ScalDFC         ....  1.000000
   Scaling of DF-LDA-C  ScalLDAC        ....  1.000000
   Perturbative correction              ....  0.000000
 Long-range corrected/Screened/Range-Separated Hybrid DFT is turned on
   Amount of maximum screened exact exchange              ....  0.804272
   Range separation parameter mu (erf(mu*r12)/r12)        ....  0.250000
 RI-approximation to the Coulomb term is turned on
   Number of auxiliary basis functions  .... 1713
   RIJ-COSX (HFX calculated with COS-X)).... on


General Settings:
 Integral files         IntName         .... total
 Hartree-Fock type      HFTyp           .... RHF
 Total Charge           Charge          ....    0
 Multiplicity           Mult            ....    1
 Number of Electrons    NEL             ....  224
 Basis Dimension        Dim             .... 1076
 Nuclear Repulsion      ENuc            ....   2849.7769277402 Eh

Convergence Acceleration:
 DIIS                   CNVDIIS         .... on
   Start iteration      DIISMaxIt       ....    12
   Startup error        DIISStart       ....  0.200000
   # of expansion vecs  DIISMaxEq       ....     5
   Bias factor          DIISBfac        ....   1.050
   Max. coefficient     DIISMaxC        ....  10.000
 Newton-Raphson         CNVNR           .... off
 SOSCF                  CNVSOSCF        .... on
   Start iteration      SOSCFMaxIt      ....   150
   Startup grad/error   SOSCFStart      ....  0.003300
 Level Shifting         CNVShift        .... on
   Level shift para.    LevelShift      ....    0.2500
   Turn off err/grad.   ShiftErr        ....    0.0010
 Zerner damping         CNVZerner       .... off
 Static damping         CNVDamp         .... on
   Fraction old density DampFac         ....    0.7000
   Max. Damping (<1)    DampMax         ....    0.9800
   Min. Damping (>=0)   DampMin         ....    0.0000
   Turn off err/grad.   DampErr         ....    0.1000
 Fernandez-Rico         CNVRico         .... off

SCF Procedure:
 Maximum # iterations   MaxIter         ....   125
 SCF integral mode      SCFMode         .... Direct
   Integral package                     .... LIBINT
 Reset frequeny         DirectResetFreq ....    20
 Integral Threshold     Thresh          ....  2.500e-11 Eh
 Primitive CutOff       TCut            ....  2.500e-12 Eh

Convergence Tolerance:
 Convergence Check Mode ConvCheckMode   .... Total+1el-Energy
 Convergence forced     ConvForced      .... 1
 Energy Change          TolE            ....  1.000e-08 Eh
 1-El. energy change                    ....  1.000e-05 Eh
 Orbital Gradient       TolG            ....  1.000e-05
 Orbital Rotation angle TolX            ....  1.000e-05
 DIIS Error             TolErr          ....  5.000e-07


Diagonalization of the overlap matrix:
Smallest eigenvalue                        ... 6.076e-06
Time for diagonalization                   ...    0.434 sec
Threshold for overlap eigenvalues          ... 1.000e-08
Number of eigenvalues below threshold      ... 0
Time for construction of square roots      ...    0.431 sec
Total time needed                          ...    0.874 sec

-------------------
DFT GRID GENERATION
-------------------

General Integration Accuracy     IntAcc      ...  5.010
Radial Grid Type                 RadialGrid  ... Gauss-Chebyshev
Angular Grid (max. acc.)         AngularGrid ... Lebedev-434
Angular grid pruning method      GridPruning ... 3 (G Style)
Weight generation scheme         WeightScheme... Becke
Basis function cutoff            BFCut       ...    1.0000e-11
Integration weight cutoff        WCut        ...    1.0000e-14
Grids for H and He will be reduced by one unit

# of grid points (after initial pruning)     ... 430122 (   0.0 sec)
# of grid points (after weights+screening)   ... 379332 (   0.8 sec)
nearest neighbour list constructed           ...    0.0 sec
Grid point re-assignment to atoms done       ...    0.2 sec
Grid point division into batches done        ...    3.9 sec
Reduced shell lists constructed in    4.5 sec

Total number of grid points                  ...   379332
Total number of batches                      ...     5949
Average number of points per batch           ...       63
Average number of grid points per atom       ...     8430
Average number of shells per batch           ...   132.86 (32.72%)
Average number of basis functions per batch  ...   341.26 (31.72%)
Average number of large shells per batch     ...    90.55 (68.16%)
Average number of large basis fcns per batch ...   232.92 (68.25%)
Maximum spatial batch extension              ...  10.65, 13.46, 15.88 au
Average spatial batch extension              ...   0.05,  0.06,  0.07 au

Time for grid setup =    5.926 sec

------------------------------
INITIAL GUESS: MODEL POTENTIAL
------------------------------
Loading Hartree-Fock densities                     ... done
Calculating cut-offs                               ... done
Setting up the integral package                    ... done
Initializing the effective Hamiltonian             ... done
Starting the Coulomb interaction                   ... done (   0.3 sec)
Reading the grid                                   ... done
Mapping shells                                     ... done
Starting the XC term evaluation                    ... done (   1.6 sec)
  promolecular density results
     # of electrons  =    223.993755368
     EX              =   -200.510172539
     EC              =     -7.688966244
     EX+EC           =   -208.199138783
Transforming the Hamiltonian                       ... done (   0.2 sec)
Diagonalizing the Hamiltonian                      ... done (   0.3 sec)
Back transforming the eigenvectors                 ... done (   0.1 sec)
Now organizing SCF variables                       ... done
                      ------------------
                      INITIAL GUESS DONE (   8.7 sec)
                      ------------------
--------------------
COSX GRID GENERATION
--------------------

General Integration Accuracy     IntAcc      ...  3.340
Radial Grid Type                 RadialGrid  ... Gauss-Chebyshev
Angular Grid (max. acc.)         AngularGrid ... Lebedev-50
Angular grid pruning method      GridPruning ... 3 (G Style)
Weight generation scheme         WeightScheme... Becke
Basis function cutoff            BFCut       ...    1.0000e-11
Integration weight cutoff        WCut        ...    1.0000e-14
Grids for H and He will be reduced by one unit

# of grid points (after initial pruning)     ...  22776 (   0.0 sec)
# of grid points (after weights+screening)   ...  20825 (   0.1 sec)
nearest neighbour list constructed           ...    0.0 sec
Grid point re-assignment to atoms done       ...    0.0 sec
Grid point division into batches done        ...    0.0 sec
Reduced shell lists constructed in    0.0 sec

Total number of grid points                  ...    20825
Total number of batches                      ...      348
Average number of points per batch           ...       59
Average number of grid points per atom       ...      463
Average number of shells per batch           ...   145.50 (35.84%)
Average number of basis functions per batch  ...   379.00 (35.22%)
Average number of large shells per batch     ...   101.88 (70.02%)
Average number of large basis fcns per batch ...   264.75 (69.85%)
Maximum spatial batch extension              ...   6.84, 13.19, 13.19 au
Average spatial batch extension              ...   0.11,  0.24,  0.23 au

Overlap Fitting                  UseSFitting ... on
Constructing numerical overlap ... done (      0.1 sec)
Inverting numerical overlap    ... done (      0.1 sec)
Obtaining analytic overlap     ... done (      0.0 sec)
Final contraction and storage  ... done (      0.4 sec)


General Integration Accuracy     IntAcc      ...  3.670
Radial Grid Type                 RadialGrid  ... Gauss-Chebyshev
Angular Grid (max. acc.)         AngularGrid ... Lebedev-50
Angular grid pruning method      GridPruning ... 3 (G Style)
Weight generation scheme         WeightScheme... Becke
Basis function cutoff            BFCut       ...    1.0000e-11
Integration weight cutoff        WCut        ...    1.0000e-14
Grids for H and He will be reduced by one unit

# of grid points (after initial pruning)     ...  28472 (   0.0 sec)
# of grid points (after weights+screening)   ...  25944 (   0.1 sec)
nearest neighbour list constructed           ...    0.0 sec
Grid point re-assignment to atoms done       ...    0.0 sec
Grid point division into batches done        ...    0.0 sec
Reduced shell lists constructed in    0.1 sec

Total number of grid points                  ...    25944
Total number of batches                      ...      426
Average number of points per batch           ...       60
Average number of grid points per atom       ...      577
Average number of shells per batch           ...   142.68 (35.14%)
Average number of basis functions per batch  ...   369.63 (34.35%)
Average number of large shells per batch     ...    97.47 (68.31%)
Average number of large basis fcns per batch ...   253.68 (68.63%)
Maximum spatial batch extension              ...  10.67, 19.22, 18.87 au
Average spatial batch extension              ...   0.11,  0.20,  0.19 au

Overlap Fitting                  UseSFitting ... on
Constructing numerical overlap ... done (      0.1 sec)
Inverting numerical overlap    ... done (      0.1 sec)
Obtaining analytic overlap     ... done (      0.0 sec)
Final contraction and storage  ... done (      0.4 sec)


General Integration Accuracy     IntAcc      ...  4.010
Radial Grid Type                 RadialGrid  ... Gauss-Chebyshev
Angular Grid (max. acc.)         AngularGrid ... Lebedev-110
Angular grid pruning method      GridPruning ... 3 (G Style)
Weight generation scheme         WeightScheme... Becke
Basis function cutoff            BFCut       ...    1.0000e-11
Integration weight cutoff        WCut        ...    1.0000e-14
Grids for H and He will be reduced by one unit

# of grid points (after initial pruning)     ...  55732 (   0.0 sec)
# of grid points (after weights+screening)   ...  50358 (   0.1 sec)
nearest neighbour list constructed           ...    0.0 sec
Grid point re-assignment to atoms done       ...    0.0 sec
Grid point division into batches done        ...    0.1 sec
Reduced shell lists constructed in    0.1 sec

Total number of grid points                  ...    50358
Total number of batches                      ...      807
Average number of points per batch           ...       62
Average number of grid points per atom       ...     1119
Average number of shells per batch           ...   145.00 (35.71%)
Average number of basis functions per batch  ...   378.09 (35.14%)
Average number of large shells per batch     ...   101.86 (70.25%)
Average number of large basis fcns per batch ...   265.69 (70.27%)
Maximum spatial batch extension              ...   9.25, 15.61, 14.70 au
Average spatial batch extension              ...   0.10,  0.15,  0.14 au

Overlap Fitting                  UseSFitting ... on
Constructing numerical overlap ... done (      0.2 sec)
Inverting numerical overlap    ... done (      0.1 sec)
Obtaining analytic overlap     ... done (      0.0 sec)
Final contraction and storage  ... done (      0.4 sec)

Time for X-Grid setup             =    3.036 sec
--------------
SCF ITERATIONS
--------------
ITER       Energy         Delta-E        Max-DP      RMS-DP      [F,P]     Damp
               ***  Starting incremental Fock matrix formation  ***
  0  -1744.2033979351   0.000000000000 0.11067873  0.00061192  0.1700135 0.7000
  1  -1744.4225566464  -0.219158711320 0.11976140  0.00051671  0.0942387 0.7000
                               ***Turning on DIIS***
  2  -1744.5368840206  -0.114327374256 0.22296397  0.00111769  0.0536747 0.0000
  3  -1744.7266012142  -0.189717193511 0.08581992  0.00035261  0.0478782 0.0000
  4  -1744.7545318107  -0.027930596507 0.01726143  0.00013729  0.0070205 0.0000
  5  -1744.7556257809  -0.001093970281 0.00881588  0.00005472  0.0050111 0.0000
                      *** Initiating the SOSCF procedure ***
                           *** Shutting down DIIS ***
                      *** Re-Reading the Fockian *** 
                      *** Removing any level shift *** 
ITER      Energy       Delta-E        Grad      Rot      Max-DP    RMS-DP
  6  -1744.75594905  -0.0003232645  0.002623  0.002623  0.002744  0.000029
               *** Restarting incremental Fock matrix formation ***
  7  -1744.75607386  -0.0001248151  0.001752  0.005540  0.008002  0.000102
  8  -1744.75613787  -0.0000640100  0.000765  0.007327  0.005748  0.000076
  9  -1744.75615762  -0.0000197446  0.000351  0.000955  0.004949  0.000064
 10  -1744.75616701  -0.0000093949  0.000084  0.000249  0.000791  0.000010
 11  -1744.75616744  -0.0000004284  0.000073  0.000200  0.000582  0.000007
 12  -1744.75616792  -0.0000004814  0.000016  0.000074  0.000206  0.000002
 13  -1744.75616787   0.0000000535  0.000014  0.000018  0.000178  0.000001
                  ***Gradient check signals convergence***
              ***Rediagonalizing the Fockian in SOSCF/NRSCF***

               *****************************************************
               *                     SUCCESS                       *
               *           SCF CONVERGED AFTER  14 CYCLES          *
               *****************************************************

Old exchange energy                            =    -63.837994788 Eh
New exchange energy                            =    -63.838088417 Eh
Exchange energy change after final integration =     -0.000093629 Eh
Total energy after final integration           =  -1744.756261575 Eh
Final COS-X integration done in                =    29.686 sec

----------------
TOTAL SCF ENERGY
----------------

Total Energy       :        -1744.75626157 Eh          -47477.23157 eV

Components:
Nuclear Repulsion  :         2849.77692774 Eh           77546.37259 eV
Electronic Energy  :        -4594.53318932 Eh         -125023.60416 eV
One Electron Energy:        -8043.34977104 Eh         -218870.67444 eV
Two Electron Energy:         3448.81658173 Eh           93847.07028 eV

Virial components:
Potential Energy   :        -3481.76872214 Eh          -94743.74361 eV
Kinetic Energy     :         1737.01246056 Eh           47266.51203 eV
Virial Ratio       :            2.00445811


DFT components:
N(Alpha)           :      112.000018350609 electrons
N(Beta)            :      112.000018350609 electrons
N(Total)           :      224.000036701219 electrons
E(XC)              :     -148.325461438674 Eh       

---------------
SCF CONVERGENCE
---------------

  Last Energy change         ...   -7.9986e-08  Tolerance :   1.0000e-08
  Last MAX-Density change    ...    1.9576e-14  Tolerance :   1.0000e-07
  Last RMS-Density change    ...    8.1417e-17  Tolerance :   5.0000e-09
  Last Orbital Gradient      ...    2.4071e-06  Tolerance :   1.0000e-05
  Last Orbital Rotation      ...    7.7160e-06  Tolerance :   1.0000e-05

             **** THE GBW FILE WAS UPDATED (total.gbw) ****
             **** DENSITY FILE WAS UPDATED (total.scfp.tmp) ****
             **** ENERGY FILE WAS UPDATED (total.en.tmp) ****
----------------
ORBITAL ENERGIES
----------------

  NO   OCC          E(Eh)            E(eV) 
   0   2.0000     -89.013307     -2422.1752 
   1   2.0000     -19.341020      -526.2959 
   2   2.0000     -19.336763      -526.1801 
   3   2.0000     -14.485204      -394.1624 
   4   2.0000     -14.476833      -393.9347 
   5   2.0000     -14.473342      -393.8397 
   6   2.0000     -14.452348      -393.2684 
   7   2.0000     -14.448095      -393.1527 
   8   2.0000     -10.370224      -282.1881 
   9   2.0000     -10.369801      -282.1766 
  10   2.0000     -10.346618      -281.5458 
  11   2.0000     -10.342662      -281.4381 
  12   2.0000     -10.341800      -281.4147 
  13   2.0000     -10.340289      -281.3736 
  14   2.0000     -10.339009      -281.3387 
  15   2.0000     -10.336505      -281.2706 
  16   2.0000     -10.336409      -281.2680 
  17   2.0000     -10.335688      -281.2484 
  18   2.0000     -10.331288      -281.1286 
  19   2.0000     -10.329807      -281.0883 
  20   2.0000     -10.320494      -280.8349 
  21   2.0000     -10.306316      -280.4491 
  22   2.0000     -10.301457      -280.3169 
  23   2.0000     -10.300745      -280.2975 
  24   2.0000     -10.299564      -280.2654 
  25   2.0000     -10.296893      -280.1927 
  26   2.0000     -10.294425      -280.1255 
  27   2.0000     -10.293880      -280.1107 
  28   2.0000     -10.288711      -279.9701 
  29   2.0000     -10.287431      -279.9352 
  30   2.0000     -10.284825      -279.8643 
  31   2.0000     -10.276242      -279.6308 
  32   2.0000      -8.108574      -220.6455 
  33   2.0000      -6.061419      -164.9396 
  34   2.0000      -6.057448      -164.8315 
  35   2.0000      -6.056639      -164.8095 
  36   2.0000      -1.289637       -35.0928 
  37   2.0000      -1.283074       -34.9142 
  38   2.0000      -1.110770       -30.2256 
  39   2.0000      -1.102439       -29.9989 
  40   2.0000      -1.032192       -28.0874 
  41   2.0000      -1.017236       -27.6804 
  42   2.0000      -1.009141       -27.4601 
  43   2.0000      -0.988113       -26.8879 
  44   2.0000      -0.979413       -26.6512 
  45   2.0000      -0.967986       -26.3402 
  46   2.0000      -0.937691       -25.5159 
  47   2.0000      -0.918728       -24.9999 
  48   2.0000      -0.905312       -24.6348 
  49   2.0000      -0.880198       -23.9514 
  50   2.0000      -0.875199       -23.8154 
  51   2.0000      -0.861853       -23.4522 
  52   2.0000      -0.849814       -23.1246 
  53   2.0000      -0.844163       -22.9708 
  54   2.0000      -0.786632       -21.4053 
  55   2.0000      -0.779196       -21.2030 
  56   2.0000      -0.772731       -21.0271 
  57   2.0000      -0.762825       -20.7575 
  58   2.0000      -0.742579       -20.2066 
  59   2.0000      -0.725660       -19.7462 
  60   2.0000      -0.722501       -19.6602 
  61   2.0000      -0.717160       -19.5149 
  62   2.0000      -0.708101       -19.2684 
  63   2.0000      -0.692250       -18.8371 
  64   2.0000      -0.668722       -18.1969 
  65   2.0000      -0.661938       -18.0123 
  66   2.0000      -0.637010       -17.3339 
  67   2.0000      -0.630987       -17.1700 
  68   2.0000      -0.618852       -16.8398 
  69   2.0000      -0.610226       -16.6051 
  70   2.0000      -0.608430       -16.5562 
  71   2.0000      -0.601884       -16.3781 
  72   2.0000      -0.599281       -16.3073 
  73   2.0000      -0.592569       -16.1246 
  74   2.0000      -0.590035       -16.0557 
  75   2.0000      -0.567373       -15.4390 
  76   2.0000      -0.566154       -15.4058 
  77   2.0000      -0.557146       -15.1607 
  78   2.0000      -0.551745       -15.0137 
  79   2.0000      -0.551010       -14.9937 
  80   2.0000      -0.545034       -14.8311 
  81   2.0000      -0.536248       -14.5920 
  82   2.0000      -0.533972       -14.5301 
  83   2.0000      -0.532787       -14.4979 
  84   2.0000      -0.526668       -14.3314 
  85   2.0000      -0.512828       -13.9548 
  86   2.0000      -0.509356       -13.8603 
  87   2.0000      -0.505214       -13.7476 
  88   2.0000      -0.492027       -13.3887 
  89   2.0000      -0.481006       -13.0888 
  90   2.0000      -0.475890       -12.9496 
  91   2.0000      -0.471277       -12.8241 
  92   2.0000      -0.470471       -12.8022 
  93   2.0000      -0.462720       -12.5912 
  94   2.0000      -0.449541       -12.2326 
  95   2.0000      -0.448577       -12.2064 
  96   2.0000      -0.446188       -12.1414 
  97   2.0000      -0.439508       -11.9596 
  98   2.0000      -0.429876       -11.6975 
  99   2.0000      -0.424674       -11.5560 
 100   2.0000      -0.415741       -11.3129 
 101   2.0000      -0.409223       -11.1355 
 102   2.0000      -0.402616       -10.9557 
 103   2.0000      -0.394616       -10.7380 
 104   2.0000      -0.374744       -10.1973 
 105   2.0000      -0.353254        -9.6125 
 106   2.0000      -0.347122        -9.4457 
 107   2.0000      -0.344745        -9.3810 
 108   2.0000      -0.334561        -9.1039 
 109   2.0000      -0.304115        -8.2754 
 110   2.0000      -0.303900        -8.2695 
 111   2.0000      -0.292793        -7.9673 
 112   0.0000      -0.036625        -0.9966 
 113   0.0000      -0.002123        -0.0578 
 114   0.0000       0.019932         0.5424 
 115   0.0000       0.045089         1.2269 
 116   0.0000       0.051141         1.3916 
 117   0.0000       0.070492         1.9182 
 118   0.0000       0.080496         2.1904 
 119   0.0000       0.084440         2.2977 
 120   0.0000       0.093648         2.5483 
 121   0.0000       0.106534         2.8989 
 122   0.0000       0.115171         3.1340 
 123   0.0000       0.127811         3.4779 
 124   0.0000       0.130938         3.5630 
 125   0.0000       0.136729         3.7206 
 126   0.0000       0.140308         3.8180 
 127   0.0000       0.145830         3.9682 
 128   0.0000       0.149354         4.0641 
 129   0.0000       0.151512         4.1228 
 130   0.0000       0.156160         4.2493 
 131   0.0000       0.161304         4.3893 
 132   0.0000       0.166597         4.5333 
 133   0.0000       0.172763         4.7011 
 134   0.0000       0.176356         4.7989 
 135   0.0000       0.178145         4.8476 
 136   0.0000       0.179749         4.8912 
 137   0.0000       0.181327         4.9341 
 138   0.0000       0.192312         5.2331 
 139   0.0000       0.194185         5.2840 
 140   0.0000       0.196154         5.3376 
 141   0.0000       0.203409         5.5350 
 142   0.0000       0.208380         5.6703 
 143   0.0000       0.210970         5.7408 
 144   0.0000       0.215921         5.8755 
 145   0.0000       0.220152         5.9906 
 146   0.0000       0.227053         6.1784 
 147   0.0000       0.230655         6.2764 
 148   0.0000       0.242337         6.5943 
 149   0.0000       0.246334         6.7031 
 150   0.0000       0.253337         6.8936 
 151   0.0000       0.255444         6.9510 
 152   0.0000       0.257874         7.0171 
 153   0.0000       0.258279         7.0281 
 154   0.0000       0.262446         7.1415 
 155   0.0000       0.269871         7.3436 
 156   0.0000       0.270785         7.3684 
 157   0.0000       0.274202         7.4614 
 158   0.0000       0.279707         7.6112 
 159   0.0000       0.282428         7.6852 
 160   0.0000       0.283900         7.7253 
 161   0.0000       0.288128         7.8404 
 162   0.0000       0.290809         7.9133 
 163   0.0000       0.292104         7.9486 
 164   0.0000       0.294026         8.0009 
 165   0.0000       0.299085         8.1385 
 166   0.0000       0.300838         8.1862 
 167   0.0000       0.301746         8.2109 
 168   0.0000       0.306134         8.3303 
 169   0.0000       0.314607         8.5609 
 170   0.0000       0.317632         8.6432 
 171   0.0000       0.321054         8.7363 
 172   0.0000       0.326063         8.8726 
 173   0.0000       0.329183         8.9575 
 174   0.0000       0.334019         9.0891 
 175   0.0000       0.336457         9.1555 
 176   0.0000       0.338304         9.2057 
 177   0.0000       0.341841         9.3020 
 178   0.0000       0.344711         9.3801 
 179   0.0000       0.346958         9.4412 
 180   0.0000       0.350801         9.5458 
 181   0.0000       0.353103         9.6084 
 182   0.0000       0.359336         9.7780 
 183   0.0000       0.365036         9.9331 
 184   0.0000       0.365825         9.9546 
 185   0.0000       0.367915        10.0115 
 186   0.0000       0.372997        10.1498 
 187   0.0000       0.375660        10.2222 
 188   0.0000       0.381237        10.3740 
 189   0.0000       0.381501        10.3812 
 190   0.0000       0.385242        10.4830 
 191   0.0000       0.389001        10.5853 
 192   0.0000       0.392928        10.6921 
 193   0.0000       0.396319        10.7844 
 194   0.0000       0.398922        10.8552 
 195   0.0000       0.400753        10.9050 
 196   0.0000       0.407377        11.0853 
 197   0.0000       0.412597        11.2273 
 198   0.0000       0.414420        11.2769 
 199   0.0000       0.418904        11.3990 
 200   0.0000       0.420368        11.4388 
 201   0.0000       0.426237        11.5985 
 202   0.0000       0.426496        11.6055 
 203   0.0000       0.429496        11.6872 
 204   0.0000       0.431588        11.7441 
 205   0.0000       0.434875        11.8335 
 206   0.0000       0.437693        11.9102 
 207   0.0000       0.441423        12.0117 
 208   0.0000       0.444195        12.0872 
 209   0.0000       0.444470        12.0946 
 210   0.0000       0.448836        12.2134 
 211   0.0000       0.452054        12.3010 
 212   0.0000       0.456616        12.4252 
 213   0.0000       0.457808        12.4576 
 214   0.0000       0.463962        12.6250 
 215   0.0000       0.465407        12.6644 
 216   0.0000       0.466436        12.6924 
 217   0.0000       0.470306        12.7977 
 218   0.0000       0.474225        12.9043 
 219   0.0000       0.476261        12.9597 
 220   0.0000       0.481914        13.1136 
 221   0.0000       0.483367        13.1531 
 222   0.0000       0.488087        13.2815 
 223   0.0000       0.492042        13.3892 
 224   0.0000       0.495109        13.4726 
 225   0.0000       0.498296        13.5593 
 226   0.0000       0.501286        13.6407 
 227   0.0000       0.506158        13.7733 
 228   0.0000       0.508756        13.8440 
 229   0.0000       0.510853        13.9010 
 230   0.0000       0.514844        14.0096 
 231   0.0000       0.518423        14.1070 
 232   0.0000       0.528754        14.3881 
 233   0.0000       0.531375        14.4594 
 234   0.0000       0.533281        14.5113 
 235   0.0000       0.534757        14.5515 
 236   0.0000       0.538556        14.6549 
 237   0.0000       0.541291        14.7293 
 238   0.0000       0.545257        14.8372 
 239   0.0000       0.547691        14.9034 
 240   0.0000       0.548917        14.9368 
 241   0.0000       0.553523        15.0621 
 242   0.0000       0.553936        15.0734 
 243   0.0000       0.556059        15.1311 
 244   0.0000       0.558849        15.2071 
 245   0.0000       0.564733        15.3672 
 246   0.0000       0.566105        15.4045 
 247   0.0000       0.572699        15.5839 
 248   0.0000       0.574767        15.6402 
 249   0.0000       0.585677        15.9371 
 250   0.0000       0.586830        15.9685 
 251   0.0000       0.587824        15.9955 
 252   0.0000       0.591587        16.0979 
 253   0.0000       0.598341        16.2817 
 254   0.0000       0.603026        16.4092 
 255   0.0000       0.607469        16.5301 
 256   0.0000       0.612191        16.6586 
 257   0.0000       0.617903        16.8140 
 258   0.0000       0.620272        16.8785 
 259   0.0000       0.628447        17.1009 
 260   0.0000       0.634772        17.2730 
 261   0.0000       0.635559        17.2944 
 262   0.0000       0.649670        17.6784 
 263   0.0000       0.657789        17.8993 
 264   0.0000       0.659830        17.9549 
 265   0.0000       0.663480        18.0542 
 266   0.0000       0.669223        18.2105 
 267   0.0000       0.671298        18.2669 
 268   0.0000       0.675838        18.3905 
 269   0.0000       0.679639        18.4939 
 270   0.0000       0.683677        18.6038 
 271   0.0000       0.686555        18.6821 
 272   0.0000       0.688423        18.7329 
 273   0.0000       0.689793        18.7702 
 274   0.0000       0.696533        18.9536 
 275   0.0000       0.697414        18.9776 
 276   0.0000       0.702605        19.1188 
 277   0.0000       0.703981        19.1563 
 278   0.0000       0.704763        19.1776 
 279   0.0000       0.713713        19.4211 
 280   0.0000       0.716181        19.4883 
 281   0.0000       0.722576        19.6623 
 282   0.0000       0.724282        19.7087 
 283   0.0000       0.732262        19.9259 
 284   0.0000       0.735605        20.0168 
 285   0.0000       0.737938        20.0803 
 286   0.0000       0.741230        20.1699 
 287   0.0000       0.745709        20.2918 
 288   0.0000       0.747111        20.3299 
 289   0.0000       0.751580        20.4515 
 290   0.0000       0.754798        20.5391 
 291   0.0000       0.755752        20.5651 
 292   0.0000       0.761618        20.7247 
 293   0.0000       0.769271        20.9329 
 294   0.0000       0.769819        20.9478 
 295   0.0000       0.773836        21.0572 
 296   0.0000       0.778686        21.1891 
 297   0.0000       0.781975        21.2786 
 298   0.0000       0.785960        21.3870 
 299   0.0000       0.788041        21.4437 
 300   0.0000       0.790964        21.5232 
 301   0.0000       0.794508        21.6197 
 302   0.0000       0.798602        21.7311 
 303   0.0000       0.802016        21.8240 
 304   0.0000       0.806850        21.9555 
 305   0.0000       0.813419        22.1343 
 306   0.0000       0.815417        22.1886 
 307   0.0000       0.818232        22.2652 
 308   0.0000       0.826927        22.5018 
 309   0.0000       0.828659        22.5490 
 310   0.0000       0.830784        22.6068 
 311   0.0000       0.837005        22.7761 
 312   0.0000       0.847153        23.0522 
 313   0.0000       0.850102        23.1324 
 314   0.0000       0.853549        23.2262 
 315   0.0000       0.859135        23.3783 
 316   0.0000       0.864040        23.5117 
 317   0.0000       0.864928        23.5359 
 318   0.0000       0.877187        23.8695 
 319   0.0000       0.882670        24.0187 
 320   0.0000       0.888355        24.1734 
 321   0.0000       0.893965        24.3260 
 322   0.0000       0.899320        24.4718 
 323   0.0000       0.906130        24.6571 
 324   0.0000       0.910510        24.7762 
 325   0.0000       0.915122        24.9017 
 326   0.0000       0.918272        24.9875 
 327   0.0000       0.922689        25.1077 
 328   0.0000       0.929020        25.2799 
 329   0.0000       0.931777        25.3549 
 330   0.0000       0.936921        25.4949 
 331   0.0000       0.939609        25.5681 
 332   0.0000       0.943735        25.6803 
 333   0.0000       0.950104        25.8536 
 334   0.0000       0.951679        25.8965 
 335   0.0000       0.959162        26.1001 
 336   0.0000       0.961654        26.1679 
 337   0.0000       0.966753        26.3067 
 338   0.0000       0.971047        26.4235 
 339   0.0000       0.981826        26.7169 
 340   0.0000       0.983160        26.7532 
 341   0.0000       0.995557        27.0905 
 342   0.0000       0.998629        27.1741 
 343   0.0000       1.004731        27.3401 
 344   0.0000       1.006497        27.3882 
 345   0.0000       1.015112        27.6226 
 346   0.0000       1.024259        27.8715 
 347   0.0000       1.028950        27.9991 
 348   0.0000       1.039414        28.2839 
 349   0.0000       1.043501        28.3951 
 350   0.0000       1.046819        28.4854 
 351   0.0000       1.052287        28.6342 
 352   0.0000       1.062472        28.9113 
 353   0.0000       1.068359        29.0715 
 354   0.0000       1.071404        29.1544 
 355   0.0000       1.075146        29.2562 
 356   0.0000       1.077565        29.3220 
 357   0.0000       1.080890        29.4125 
 358   0.0000       1.093719        29.7616 
 359   0.0000       1.096323        29.8325 
 360   0.0000       1.105310        30.0770 
 361   0.0000       1.112939        30.2846 
 362   0.0000       1.122247        30.5379 
 363   0.0000       1.126893        30.6643 
 364   0.0000       1.128858        30.7178 
 365   0.0000       1.136589        30.9282 
 366   0.0000       1.144952        31.1557 
 367   0.0000       1.151083        31.3225 
 368   0.0000       1.157863        31.5071 
 369   0.0000       1.161763        31.6132 
 370   0.0000       1.167720        31.7753 
 371   0.0000       1.171641        31.8820 
 372   0.0000       1.177941        32.0534 
 373   0.0000       1.181000        32.1366 
 374   0.0000       1.186995        32.2998 
 375   0.0000       1.190778        32.4027 
 376   0.0000       1.199695        32.6454 
 377   0.0000       1.212484        32.9934 
 378   0.0000       1.220136        33.2016 
 379   0.0000       1.224698        33.3257 
 380   0.0000       1.230810        33.4921 
 381   0.0000       1.232571        33.5400 
 382   0.0000       1.238539        33.7024 
 383   0.0000       1.244436        33.8628 
 384   0.0000       1.245643        33.8957 
 385   0.0000       1.254873        34.1468 
 386   0.0000       1.261978        34.3402 
 387   0.0000       1.273747        34.6604 
 388   0.0000       1.278778        34.7973 
 389   0.0000       1.288347        35.0577 
 390   0.0000       1.297527        35.3075 
 391   0.0000       1.300827        35.3973 
 392   0.0000       1.305466        35.5235 
 393   0.0000       1.317806        35.8593 
 394   0.0000       1.322399        35.9843 
 395   0.0000       1.327105        36.1124 
 396   0.0000       1.331820        36.2407 
 397   0.0000       1.338613        36.4255 
 398   0.0000       1.338903        36.4334 
 399   0.0000       1.346193        36.6318 
 400   0.0000       1.351208        36.7682 
 401   0.0000       1.357792        36.9474 
 402   0.0000       1.364501        37.1300 
 403   0.0000       1.367405        37.2090 
 404   0.0000       1.376487        37.4561 
 405   0.0000       1.376824        37.4653 
 406   0.0000       1.385312        37.6962 
 407   0.0000       1.390503        37.8375 
 408   0.0000       1.398998        38.0687 
 409   0.0000       1.401966        38.1494 
 410   0.0000       1.409020        38.3414 
 411   0.0000       1.411724        38.4150 
 412   0.0000       1.422206        38.7002 
 413   0.0000       1.426591        38.8195 
 414   0.0000       1.433077        38.9960 
 415   0.0000       1.438026        39.1307 
 416   0.0000       1.441492        39.2250 
 417   0.0000       1.448257        39.4091 
 418   0.0000       1.451966        39.5100 
 419   0.0000       1.460906        39.7533 
 420   0.0000       1.467130        39.9226 
 421   0.0000       1.472488        40.0684 
 422   0.0000       1.478554        40.2335 
 423   0.0000       1.483866        40.3780 
 424   0.0000       1.490680        40.5635 
 425   0.0000       1.498241        40.7692 
 426   0.0000       1.500546        40.8319 
 427   0.0000       1.503921        40.9238 
 428   0.0000       1.506820        41.0027 
 429   0.0000       1.512755        41.1642 
 430   0.0000       1.515254        41.2322 
 431   0.0000       1.518126        41.3103 
 432   0.0000       1.528120        41.5823 
 433   0.0000       1.534804        41.7642 
 434   0.0000       1.540210        41.9113 
 435   0.0000       1.544970        42.0408 
 436   0.0000       1.556404        42.3519 
 437   0.0000       1.557931        42.3934 
 438   0.0000       1.561832        42.4996 
 439   0.0000       1.564615        42.5753 
 440   0.0000       1.565215        42.5917 
 441   0.0000       1.567725        42.6600 
 442   0.0000       1.574272        42.8381 
 443   0.0000       1.578858        42.9629 
 444   0.0000       1.586928        43.1825 
 445   0.0000       1.594876        43.3988 
 446   0.0000       1.598189        43.4889 
 447   0.0000       1.602258        43.5997 
 448   0.0000       1.605834        43.6970 
 449   0.0000       1.608848        43.7790 
 450   0.0000       1.611219        43.8435 
 451   0.0000       1.612147        43.8688 
 452   0.0000       1.620604        44.0989 
 453   0.0000       1.625263        44.2257 
 454   0.0000       1.633603        44.4526 
 455   0.0000       1.635599        44.5069 
 456   0.0000       1.640737        44.6467 
 457   0.0000       1.643304        44.7166 
 458   0.0000       1.651847        44.9490 
 459   0.0000       1.656597        45.0783 
 460   0.0000       1.659740        45.1638 
 461   0.0000       1.660382        45.1813 
 462   0.0000       1.668244        45.3952 
 463   0.0000       1.678662        45.6787 
 464   0.0000       1.685900        45.8757 
 465   0.0000       1.692178        46.0465 
 466   0.0000       1.693479        46.0819 
 467   0.0000       1.699428        46.2438 
 468   0.0000       1.707176        46.4546 
 469   0.0000       1.714237        46.6468 
 470   0.0000       1.716926        46.7199 
 471   0.0000       1.725675        46.9580 
 472   0.0000       1.737849        47.2893 
 473   0.0000       1.739893        47.3449 
 474   0.0000       1.743349        47.4389 
 475   0.0000       1.749980        47.6194 
 476   0.0000       1.757434        47.8222 
 477   0.0000       1.761632        47.9364 
 478   0.0000       1.766290        48.0632 
 479   0.0000       1.774359        48.2828 
 480   0.0000       1.779085        48.4114 
 481   0.0000       1.786402        48.6105 
 482   0.0000       1.790449        48.7206 
 483   0.0000       1.795151        48.8486 
 484   0.0000       1.799023        48.9539 
 485   0.0000       1.805026        49.1173 
 486   0.0000       1.811557        49.2950 
 487   0.0000       1.813231        49.3405 
 488   0.0000       1.814250        49.3682 
 489   0.0000       1.818751        49.4907 
 490   0.0000       1.825393        49.6715 
 491   0.0000       1.832540        49.8659 
 492   0.0000       1.837738        50.0074 
 493   0.0000       1.843944        50.1763 
 494   0.0000       1.851628        50.3854 
 495   0.0000       1.860624        50.6301 
 496   0.0000       1.866152        50.7806 
 497   0.0000       1.880781        51.1787 
 498   0.0000       1.882914        51.2367 
 499   0.0000       1.891629        51.4738 
 500   0.0000       1.892379        51.4943 
 501   0.0000       1.901962        51.7550 
 502   0.0000       1.905949        51.8635 
 503   0.0000       1.915726        52.1296 
 504   0.0000       1.920556        52.2610 
 505   0.0000       1.924564        52.3700 
 506   0.0000       1.932781        52.5936 
 507   0.0000       1.938599        52.7520 
 508   0.0000       1.953070        53.1457 
 509   0.0000       1.955564        53.2136 
 510   0.0000       1.960873        53.3581 
 511   0.0000       1.965111        53.4734 
 512   0.0000       1.965892        53.4946 
 513   0.0000       1.972884        53.6849 
 514   0.0000       1.979136        53.8550 
 515   0.0000       1.987793        54.0906 
 516   0.0000       1.991924        54.2030 
 517   0.0000       1.999669        54.4137 
 518   0.0000       2.005571        54.5744 
 519   0.0000       2.016949        54.8840 
 520   0.0000       2.019941        54.9654 
 521   0.0000       2.037760        55.4503 
 522   0.0000       2.044585        55.6360 
 523   0.0000       2.048246        55.7356 
 524   0.0000       2.054073        55.8942 
 525   0.0000       2.059271        56.0356 
 526   0.0000       2.065748        56.2119 
 527   0.0000       2.067352        56.2555 
 528   0.0000       2.080277        56.6072 
 529   0.0000       2.088786        56.8387 
 530   0.0000       2.095713        57.0272 
 531   0.0000       2.097861        57.0857 
 532   0.0000       2.103837        57.2483 
 533   0.0000       2.119559        57.6761 
 534   0.0000       2.123500        57.7834 
 535   0.0000       2.131022        57.9881 
 536   0.0000       2.132953        58.0406 
 537   0.0000       2.135700        58.1154 
 538   0.0000       2.139906        58.2298 
 539   0.0000       2.143390        58.3246 
 540   0.0000       2.149245        58.4839 
 541   0.0000       2.159739        58.7695 
 542   0.0000       2.172324        59.1119 
 543   0.0000       2.174478        59.1706 
 544   0.0000       2.175925        59.2099 
 545   0.0000       2.181726        59.3678 
 546   0.0000       2.189214        59.5716 
 547   0.0000       2.195141        59.7328 
 548   0.0000       2.196330        59.7652 
 549   0.0000       2.205724        60.0208 
 550   0.0000       2.211239        60.1709 
 551   0.0000       2.222360        60.4735 
 552   0.0000       2.237360        60.8817 
 553   0.0000       2.238392        60.9097 
 554   0.0000       2.240738        60.9736 
 555   0.0000       2.248977        61.1978 
 556   0.0000       2.259594        61.4867 
 557   0.0000       2.264371        61.6167 
 558   0.0000       2.271873        61.8208 
 559   0.0000       2.279878        62.0386 
 560   0.0000       2.289676        62.3053 
 561   0.0000       2.294705        62.4421 
 562   0.0000       2.301334        62.6225 
 563   0.0000       2.302762        62.6613 
 564   0.0000       2.307796        62.7983 
 565   0.0000       2.320435        63.1422 
 566   0.0000       2.321386        63.1681 
 567   0.0000       2.328758        63.3687 
 568   0.0000       2.337584        63.6089 
 569   0.0000       2.348171        63.8970 
 570   0.0000       2.349532        63.9340 
 571   0.0000       2.351009        63.9742 
 572   0.0000       2.360995        64.2459 
 573   0.0000       2.371013        64.5185 
 574   0.0000       2.375534        64.6416 
 575   0.0000       2.395086        65.1736 
 576   0.0000       2.397958        65.2518 
 577   0.0000       2.410499        65.5930 
 578   0.0000       2.413859        65.6845 
 579   0.0000       2.426034        66.0157 
 580   0.0000       2.436239        66.2934 
 581   0.0000       2.439571        66.3841 
 582   0.0000       2.443146        66.4814 
 583   0.0000       2.452808        66.7443 
 584   0.0000       2.455480        66.8170 
 585   0.0000       2.469285        67.1926 
 586   0.0000       2.482527        67.5530 
 587   0.0000       2.488155        67.7062 
 588   0.0000       2.508387        68.2567 
 589   0.0000       2.514331        68.4184 
 590   0.0000       2.527053        68.7646 
 591   0.0000       2.529547        68.8325 
 592   0.0000       2.535960        69.0070 
 593   0.0000       2.546578        69.2959 
 594   0.0000       2.555543        69.5399 
 595   0.0000       2.567679        69.8701 
 596   0.0000       2.572596        70.0039 
 597   0.0000       2.580013        70.2057 
 598   0.0000       2.580894        70.2297 
 599   0.0000       2.605363        70.8955 
 600   0.0000       2.613847        71.1264 
 601   0.0000       2.617589        71.2282 
 602   0.0000       2.623989        71.4024 
 603   0.0000       2.625924        71.4550 
 604   0.0000       2.629282        71.5464 
 605   0.0000       2.635707        71.7212 
 606   0.0000       2.637849        71.7795 
 607   0.0000       2.652785        72.1860 
 608   0.0000       2.659160        72.3594 
 609   0.0000       2.663832        72.4866 
 610   0.0000       2.670506        72.6682 
 611   0.0000       2.676185        72.8227 
 612   0.0000       2.680179        72.9314 
 613   0.0000       2.688708        73.1635 
 614   0.0000       2.691151        73.2300 
 615   0.0000       2.695098        73.3373 
 616   0.0000       2.698793        73.4379 
 617   0.0000       2.705177        73.6116 
 618   0.0000       2.718614        73.9773 
 619   0.0000       2.721399        74.0530 
 620   0.0000       2.727093        74.2080 
 621   0.0000       2.730789        74.3085 
 622   0.0000       2.734354        74.4055 
 623   0.0000       2.735365        74.4331 
 624   0.0000       2.743164        74.6453 
 625   0.0000       2.745938        74.7208 
 626   0.0000       2.756594        75.0107 
 627   0.0000       2.758502        75.0627 
 628   0.0000       2.773121        75.4604 
 629   0.0000       2.773856        75.4804 
 630   0.0000       2.777954        75.5920 
 631   0.0000       2.784279        75.7641 
 632   0.0000       2.788814        75.8875 
 633   0.0000       2.790483        75.9329 
 634   0.0000       2.802277        76.2538 
 635   0.0000       2.803079        76.2757 
 636   0.0000       2.810587        76.4800 
 637   0.0000       2.812144        76.5223 
 638   0.0000       2.819662        76.7269 
 639   0.0000       2.822450        76.8028 
 640   0.0000       2.829936        77.0065 
 641   0.0000       2.831216        77.0413 
 642   0.0000       2.838894        77.2502 
 643   0.0000       2.841930        77.3328 
 644   0.0000       2.847198        77.4762 
 645   0.0000       2.851576        77.5953 
 646   0.0000       2.855283        77.6962 
 647   0.0000       2.869899        78.0939 
 648   0.0000       2.871158        78.1282 
 649   0.0000       2.875955        78.2587 
 650   0.0000       2.883128        78.4539 
 651   0.0000       2.884889        78.5018 
 652   0.0000       2.887579        78.5750 
 653   0.0000       2.899472        78.8987 
 654   0.0000       2.904167        79.0264 
 655   0.0000       2.906756        79.0969 
 656   0.0000       2.912148        79.2436 
 657   0.0000       2.915596        79.3374 
 658   0.0000       2.919906        79.4547 
 659   0.0000       2.924194        79.5714 
 660   0.0000       2.934136        79.8419 
 661   0.0000       2.942185        80.0609 
 662   0.0000       2.942651        80.0736 
 663   0.0000       2.952956        80.3540 
 664   0.0000       2.958405        80.5023 
 665   0.0000       2.961031        80.5738 
 666   0.0000       2.971319        80.8537 
 667   0.0000       2.973019        80.9000 
 668   0.0000       2.978373        81.0457 
 669   0.0000       2.982111        81.1474 
 670   0.0000       2.983990        81.1985 
 671   0.0000       2.992352        81.4260 
 672   0.0000       2.995734        81.5181 
 673   0.0000       2.998334        81.5888 
 674   0.0000       3.004196        81.7483 
 675   0.0000       3.010489        81.9196 
 676   0.0000       3.018418        82.1353 
 677   0.0000       3.021793        82.2272 
 678   0.0000       3.028096        82.3987 
 679   0.0000       3.037659        82.6589 
 680   0.0000       3.041673        82.7681 
 681   0.0000       3.044751        82.8519 
 682   0.0000       3.049221        82.9735 
 683   0.0000       3.053221        83.0824 
 684   0.0000       3.054852        83.1267 
 685   0.0000       3.060251        83.2737 
 686   0.0000       3.066129        83.4336 
 687   0.0000       3.069660        83.5297 
 688   0.0000       3.075579        83.6908 
 689   0.0000       3.079764        83.8046 
 690   0.0000       3.082709        83.8848 
 691   0.0000       3.094659        84.2099 
 692   0.0000       3.101926        84.4077 
 693   0.0000       3.110555        84.6425 
 694   0.0000       3.112664        84.6999 
 695   0.0000       3.120443        84.9116 
 696   0.0000       3.121336        84.9359 
 697   0.0000       3.124144        85.0123 
 698   0.0000       3.129044        85.1456 
 699   0.0000       3.135962        85.3339 
 700   0.0000       3.145488        85.5931 
 701   0.0000       3.152162        85.7747 
 702   0.0000       3.159455        85.9731 
 703   0.0000       3.163637        86.0869 
 704   0.0000       3.165748        86.1444 
 705   0.0000       3.169438        86.2448 
 706   0.0000       3.175537        86.4108 
 707   0.0000       3.179923        86.5301 
 708   0.0000       3.186940        86.7210 
 709   0.0000       3.188801        86.7717 
 710   0.0000       3.196468        86.9803 
 711   0.0000       3.197977        87.0214 
 712   0.0000       3.208324        87.3029 
 713   0.0000       3.210832        87.3712 
 714   0.0000       3.213060        87.4318 
 715   0.0000       3.213682        87.4487 
[...]
  89   8.219     150.9   0.020246   0.019822  -21.359969  -21.234627     0.17 (  60->  72)    0.12 (  69->  75)    0.07 (  67->  76)
  90   8.245     150.4   0.074906   0.074466  49.135692  48.809841     0.27 (  65->  73)    0.11 (  65->  74)    0.05 (  58->  72)
  91   8.249     150.3   0.028909   0.027669  18.859520  18.283673     0.09 (  48->  74)    0.08 (  60->  72)    0.05 (  67->  75)
  92   8.279     149.8   0.014391   0.013931  -2.222089  -1.911467     0.29 (  65->  73)    0.11 (  65->  74)    0.10 (  58->  72)
  93   8.288     149.6   0.002951   0.003216  -9.680532  -10.642726     0.13 (  70->  89)    0.04 (  68->  81)    0.04 (  69->  89)
  94   8.296     149.4   0.013677   0.010585  -0.609304  -0.493109     0.58 (  65->  84)    0.10 (  65->  85)    0.05 (  67->  84)
  95   8.328     148.9   0.002596   0.002151   6.370049   6.337315     0.36 (  69->  87)    0.10 (  69->  90)    0.09 (  70->  87)
  96   8.332     148.8   0.009437   0.009596  -14.778729  -14.879317     0.12 (  70->  91)    0.08 (  70->  92)    0.04 (  71->  91)
  97   8.355     148.4   0.003400   0.003780  -2.872557  -2.743542     0.06 (  52->  73)    0.05 (  63->  75)    0.05 (  47->  73)
  98   8.370     148.1   0.000607   0.000663   3.693129   4.185161     0.11 (  63->  72)    0.10 (  67->  77)    0.10 (  52->  73)
  99   8.409     147.4   0.004530   0.003967  -14.904222  -14.998144     0.20 (  67->  77)    0.14 (  68->  77)    0.08 (  63->  75)
 100   8.461     146.5   0.001959   0.002294  -2.448061  -1.224061     0.27 (  63->  72)    0.08 (  52->  73)    0.06 (  60->  72)
 101   8.471     146.4   0.004586   0.003324  -2.752819  -2.036342     0.13 (  63->  72)    0.06 (  71->  95)    0.04 (  68->  82)
 102   8.484     146.1   0.016374   0.014377  10.072475  11.353749     0.05 (  71->  93)    0.05 (  71->  95)    0.04 (  71->  97)
 103   8.490     146.0   0.004312   0.004040  -3.670967  -1.716207     0.11 (  71->  94)    0.06 (  71->  95)    0.05 (  68->  81)
 104   8.500     145.9   0.015905   0.016336  -15.530185  -17.429640     0.17 (  61->  75)    0.15 (  61->  76)    0.04 (  69->  88)
 105   8.528     145.4   0.022842   0.023148  -19.262393  -19.311441     0.12 (  58->  72)    0.09 (  63->  74)    0.07 (  64->  80)
 106   8.541     145.2   0.009861   0.008408  -0.953317  -1.215929     0.08 (  63->  74)    0.05 (  67->  76)    0.05 (  67->  82)
 107   8.548     145.1   0.011495   0.010735  13.841035  13.678819     0.09 (  68->  82)    0.05 (  71->  93)    0.04 (  69->  93)
 108   8.592     144.3   0.004218   0.004198  25.381135  23.643205     0.19 (  42->  72)    0.09 (  69->  93)    0.03 (  48->  72)
 109   8.601     144.2   0.001587   0.001361  -0.215445  -0.543459     0.30 (  42->  72)    0.05 (  69->  93)    0.04 (  48->  72)
 110   8.637     143.5   0.000267   0.000650   0.019512  -0.000178     0.12 (  71->  99)    0.09 (  71-> 100)    0.08 (  71->  98)
 111   8.654     143.3   0.422086   0.392126  89.266936  85.985084     0.12 (  64->  78)    0.11 (  50->  73)    0.10 (  64->  80)
 112   8.678     142.9   0.020654   0.019410  -34.709891  -34.223343     0.30 (  45->  72)    0.16 (  40->  72)    0.08 (  42->  72)
 113   8.694     142.6   0.018584   0.018244   3.774272   4.745573     0.44 (  71->  77)    0.07 (  64->  80)    0.03 (  50->  73)
 114   8.709     142.4   0.011284   0.010256  -25.658617  -24.082148     0.25 (  71->  77)    0.14 (  64->  80)    0.05 (  63->  74)
 115   8.724     142.1   0.017864   0.016705   9.361034   8.961662     0.15 (  58->  78)    0.15 (  57->  78)    0.04 (  50->  73)
 116   8.746     141.8   0.013030   0.011467  -5.197955  -7.362349     0.05 (  57->  78)    0.04 (  67->  84)    0.03 (  68->  82)
 117   8.769     141.4   0.063688   0.059867  -52.861032  -50.123893     0.08 (  64->  80)    0.06 (  50->  73)    0.05 (  71->  79)
 118   8.784     141.1   0.002445   0.002034  -4.320939  -3.869485     0.21 (  66->  95)    0.13 (  66->  96)    0.11 (  66->  97)
 119   8.786     141.1   0.031850   0.029048  14.800419  15.965958     0.13 (  71->  79)    0.08 (  66->  95)    0.05 (  66->  96)
 120   8.801     140.9   0.029066   0.025222   2.199593   1.468767     0.06 (  70->  94)    0.05 (  71->  79)    0.04 (  70->  95)
 121   8.809     140.8   0.002641   0.003648  -0.937726  -0.648527     0.20 (  65->  90)    0.15 (  65->  86)    0.14 (  71->  79)
 122   8.818     140.6   0.000707   0.000919  -4.840529  -2.570506     0.34 (  71->  79)    0.07 (  68->  75)    0.06 (  68->  76)
 123   8.841     140.2   0.019462   0.022844  18.178724  14.555682     0.06 (  61->  77)    0.04 (  69->  78)    0.04 (  70->  94)
 124   8.876     139.7   0.011785   0.010948  -12.068802  -9.281834     0.05 (  71->  79)    0.04 (  69-> 100)    0.04 (  69->  97)
 125   8.880     139.6   0.064782   0.063632  23.387909  23.032464     0.27 (  62->  73)    0.03 (  61->  77)    0.03 (  62->  74)
 126   8.889     139.5   0.073008   0.070554  22.493215  21.996269     0.28 (  62->  73)    0.03 (  62->  74)    0.03 (  62->  76)
 127   8.902     139.3   0.013431   0.013202  -6.171292  -6.704765     0.30 (  65->  86)    0.22 (  65->  90)    0.19 (  65->  87)
 128   8.938     138.7   0.010530   0.009423  20.083988  18.584165     0.11 (  64->  81)    0.05 (  63->  81)    0.05 (  70->  93)
 129   8.949     138.6   0.007779   0.007417  -13.917033  -12.981791     0.07 (  55->  75)    0.06 (  64->  81)    0.06 (  55->  76)
 130   8.957     138.4   0.018450   0.019929   2.001922  -1.851572     0.13 (  69->  78)    0.03 (  67->  80)    0.03 (  61->  73)
 131   8.989     137.9   0.009179   0.008592  -2.140488   0.719769     0.14 (  61->  79)    0.10 (  69->  98)    0.07 (  69-> 100)
 132   8.993     137.9   0.004326   0.003556  -1.823698  -2.183241     0.55 (  70->  77)    0.17 (  69->  77)    0.02 (  71->  77)
 133   9.009     137.6   0.067007   0.059595  -7.465010  -7.553675     0.10 (  38->  72)    0.07 (  61->  73)    0.06 (  69->  78)
 134   9.025     137.4   0.045659   0.045028  -0.963202  -2.058873     0.31 (  66->  84)    0.13 (  66->  90)    0.07 (  62->  79)
 135   9.040     137.2   0.004215   0.002756  -28.196580  -23.171569     0.11 (  38->  72)    0.05 (  71-> 103)    0.04 (  70->  98)
 136   9.053     136.9   0.017707   0.016067  -3.930384  -4.872111     0.19 (  61->  79)    0.04 (  65->  90)    0.04 (  69->  99)
 137   9.067     136.7   0.012692   0.010342  -44.144864  -43.153878     0.09 (  38->  72)    0.07 (  61->  79)    0.06 (  65->  90)
 138   9.083     136.5   0.005341   0.004872  15.248533  14.190286     0.21 (  65->  90)    0.20 (  65->  87)    0.07 (  61->  79)
 139   9.089     136.4   0.016294   0.014753   9.524489   9.936397     0.06 (  53->  74)    0.05 (  45->  73)    0.04 (  45->  74)
 140   9.099     136.3   0.017760   0.016464   4.749409   4.530863     0.08 (  53->  74)    0.05 (  67->  78)    0.05 (  45->  74)
 141   9.114     136.0   0.102781   0.095173  19.612076  19.153042     0.13 (  38->  72)    0.10 (  61->  77)    0.07 (  61->  79)
 142   9.144     135.6   0.034944   0.032663  22.839405  21.965534     0.07 (  61->  77)    0.07 (  69->  80)    0.04 (  67->  83)
 143   9.151     135.5   0.007669   0.006222  12.108561  10.690409     0.07 (  68->  83)    0.05 (  64->  81)    0.04 (  70->  98)
 144   9.171     135.2   0.007698   0.006565  -27.345008  -24.993680     0.19 (  62->  79)    0.04 (  60->  75)    0.03 (  57->  78)
 145   9.181     135.0   0.041401   0.038055  -6.616467  -7.212619     0.42 (  62->  79)    0.03 (  66->  84)    0.03 (  57->  78)
 146   9.190     134.9   0.004099   0.003582  -0.240662   0.100280     0.34 (  70->  79)    0.10 (  69->  79)    0.03 (  71->  79)
 147   9.197     134.8   0.015745   0.013944   4.286409   4.025864     0.27 (  70->  79)    0.08 (  69->  79)    0.08 (  62->  79)
 148   9.218     134.5   0.006461   0.005800   1.083369   0.791434     0.09 (  64->  81)    0.06 (  71-> 102)    0.05 (  70-> 100)
 149   9.234     134.3   0.001284   0.001039   2.042417   1.882517     0.15 (  69-> 101)    0.07 (  61->  79)    0.05 (  70->  99)
 150   9.250     134.0   0.001237   0.000897   0.542287   0.399103     0.07 (  55->  78)    0.04 (  51->  75)    0.04 (  51->  76)
 151   9.266     133.8   0.001293   0.000902   0.067324   0.098034     0.11 (  55->  78)    0.03 (  69->  78)    0.03 (  70-> 103)
 152   9.280     133.6   0.001596   0.001526  -3.745663  -3.910534     0.07 (  66->  88)    0.06 (  66->  75)    0.03 (  70-> 103)
 153   9.296     133.4   0.006781   0.005325   7.319276   6.037371     0.11 (  66->  88)    0.07 (  66->  75)    0.06 (  61->  73)
 154   9.307     133.2   0.002892   0.002573  -9.944237  -9.334430     0.09 (  55->  78)    0.06 (  52->  76)    0.04 (  52->  75)
 155   9.313     133.1   0.007779   0.006602  -1.940373  -1.942388     0.06 (  55->  78)    0.06 (  66->  88)    0.05 (  45->  73)
 156   9.334     132.8   0.027312   0.024747   8.251516   7.912011     0.17 (  61->  73)    0.06 (  69->  80)    0.04 (  61->  74)
 157   9.366     132.4   0.010360   0.010192  -16.468247  -17.580791     0.14 (  69->  96)    0.13 (  69->  95)    0.10 (  69->  97)
 158   9.366     132.4   0.065299   0.062731  20.365825  20.648393     0.23 (  66->  90)    0.11 (  66->  86)    0.04 (  66->  85)
 159   9.381     132.2   0.002272   0.001909  -2.984525  -1.445804     0.12 (  51->  76)    0.11 (  51->  75)    0.08 (  57->  80)
 160   9.411     131.7   0.011527   0.009799   0.135969   1.357930     0.06 (  68->  83)    0.03 (  56->  75)    0.03 (  56->  76)
 161   9.417     131.7   0.007037   0.006346  11.062119  10.150611     0.04 (  63->  78)    0.04 (  63->  80)    0.03 (  67->  80)
 162   9.422     131.6   0.002035   0.001752   0.772931  -0.926969     0.07 (  68->  83)    0.04 (  48->  72)    0.04 (  63->  80)
 163   9.426     131.5   0.002063   0.001949  -3.168654  -1.982194     0.10 (  65->  88)    0.08 (  65->  75)    0.05 (  48->  72)
 164   9.436     131.4   0.011934   0.011475  -5.844700  -6.253984     0.10 (  63->  80)    0.05 (  48->  72)    0.04 (  64->  82)
 165   9.456     131.1   0.012734   0.011188  -7.245973  -7.507766     0.10 (  67->  78)    0.05 (  64->  82)    0.04 (  63->  78)
 166   9.487     130.7   0.006626   0.005468  -1.201251  -2.340295     0.06 (  67->  96)    0.04 (  69->  80)    0.04 (  67->  95)
 167   9.514     130.3   0.072064   0.065768  36.158254  35.219110     0.08 (  69->  80)    0.08 (  67->  88)    0.04 (  68->  89)
 168   9.521     130.2   0.003144   0.002815   9.475281   8.089428     0.20 (  66->  76)    0.19 (  66->  75)    0.14 (  62->  77)
 169   9.553     129.8   0.020036   0.019785  16.374954  16.260398     0.05 (  71-> 107)    0.04 (  59->  74)    0.04 (  66->  76)
 170   9.559     129.7   0.014542   0.014296  -16.525819  -16.486064     0.13 (  66->  76)    0.10 (  59->  74)    0.10 (  59->  73)
 171   9.582     129.4   0.014243   0.012982  -2.176371  -2.134184     0.26 (  65->  76)    0.25 (  65->  75)    0.07 (  61->  77)
 172   9.584     129.4   0.000392   0.000412  -3.163204  -2.989656     0.13 (  57->  72)    0.06 (  58->  72)    0.04 (  69->  82)
 173   9.605     129.1   0.006084   0.005090   8.466222   7.442445     0.19 (  57->  72)    0.09 (  58->  72)    0.03 (  69->  82)
 174   9.608     129.0   0.006890   0.005984  -8.242894  -9.857471     0.10 (  70-> 105)    0.09 (  69-> 105)    0.09 (  69-> 106)
 175   9.611     129.0   0.000529   0.000416  -1.380164  -1.267820     0.21 (  62->  77)    0.14 (  59->  77)    0.07 (  57->  72)
 176   9.623     128.8   0.006140   0.004674  -4.571737  -1.754948     0.07 (  69-> 105)    0.04 (  70-> 106)    0.04 (  63->  80)
 177   9.642     128.6   0.004989   0.004667  -5.709186  -7.497802     0.05 (  68->  86)    0.04 (  71->  86)    0.03 (  70-> 102)
 178   9.658     128.4   0.001949   0.002065   4.093158   4.484329     0.15 (  57->  72)    0.08 (  58->  72)    0.07 (  47->  74)
 179   9.662     128.3   0.027377   0.025304   8.772305   8.516405     0.08 (  69-> 104)    0.07 (  69->  82)    0.06 (  69->  80)
 180   9.673     128.2   0.010548   0.009431   9.038991   8.461884     0.05 (  68->  99)    0.05 (  71->  85)    0.04 (  64->  85)
 181   9.689     128.0   0.018230   0.014517  -6.503015  -5.723563     0.07 (  69-> 104)    0.05 (  69->  82)    0.04 (  59->  79)
 182   9.706     127.7   0.055828   0.047623  -3.527558  -3.586148     0.09 (  59->  79)    0.07 (  71-> 107)    0.03 (  67->  93)
 183   9.725     127.5   0.006105   0.005826  -5.852967  -5.333729     0.10 (  63->  78)    0.04 (  64->  75)    0.04 (  64->  82)
 184   9.731     127.4   0.012300   0.010503  -2.625287  -2.355425     0.05 (  47->  74)    0.04 (  46->  76)    0.03 (  40->  72)
 185   9.742     127.3   0.009242   0.007975  -21.560431  -19.862444     0.10 (  59->  79)    0.07 (  62->  86)    0.07 (  65->  88)
 186   9.760     127.0   0.005409   0.005342  -2.221569  -2.762590     0.07 (  68->  77)    0.05 (  44->  73)    0.04 (  60->  76)
 187   9.767     126.9   0.005951   0.005329  -12.764984  -10.853850     0.43 (  59->  79)    0.03 (  62->  84)    0.02 (  69-> 104)
 188   9.773     126.9   0.003727   0.003284  -4.596491  -4.731919     0.09 (  68->  77)    0.08 (  44->  73)    0.05 (  67->  77)
 189   9.787     126.7   0.009077   0.007644  -8.013997  -7.320876     0.20 (  68->  77)    0.12 (  67->  77)    0.04 (  60->  76)
 190   9.797     126.6   0.003833   0.003676  15.423736  15.059207     0.11 (  68->  92)    0.09 (  71-> 102)    0.06 (  71-> 103)
 191   9.802     126.5   0.003277   0.003410  -4.809569  -5.071292     0.16 (  68->  79)    0.08 (  63->  80)    0.05 (  67-> 100)
 192   9.819     126.3   0.008588   0.007586  -21.046893  -19.963600     0.06 (  68->  77)    0.05 (  63->  80)    0.05 (  56->  72)
 193   9.825     126.2   0.004383   0.004053  16.578912  16.138098     0.12 (  53->  77)    0.09 (  53->  74)    0.08 (  56->  72)
 194   9.829     126.1   0.012911   0.010377  -7.839029  -6.932600     0.24 (  68->  79)    0.11 (  67->  79)    0.03 (  71-> 106)
 195   9.840     126.0   0.033334   0.028103  28.793002  25.819413     0.04 (  65->  88)    0.04 (  68->  79)    0.04 (  67-> 100)
 196   9.851     125.9   0.000913   0.000655  -0.577415  -0.718767     0.43 (  56->  72)    0.09 (  54->  72)    0.05 (  57->  72)
 197   9.870     125.6   0.010456   0.008405  -1.519938  -1.363319     0.10 (  56->  72)    0.04 (  57->  74)    0.03 (  62->  84)
 198   9.887     125.4   0.011239   0.010920  -17.556890  -16.122943     0.07 (  59->  79)    0.07 (  62->  84)    0.04 (  66-> 101)
 199   9.899     125.3   0.019617   0.015978  27.172120  24.826473     0.05 (  71->  84)    0.04 (  64->  82)    0.02 (  68->  79)
 200   9.906     125.2   0.004263   0.003759   8.043643   7.779915     0.04 (  67->  80)    0.04 (  56->  74)    0.04 (  56->  80)
 201   9.922     125.0   0.066112   0.056361  14.120257  13.386997     0.13 (  69-> 104)    0.07 (  38->  72)    0.07 (  53->  79)
 202   9.927     124.9   0.053561   0.047485  -26.415266  -24.763571     0.04 (  57->  74)    0.03 (  55->  72)    0.03 (  69->  81)
 203   9.935     124.8   0.000429   0.000446  -0.663642  -0.851719     0.62 (  55->  72)    0.12 (  54->  72)    0.02 (  47->  74)
 204   9.953     124.6   0.027762   0.023498  -16.984731  -15.365150     0.06 (  69->  81)    0.05 (  64->  82)    0.05 (  60->  76)
 205   9.953     124.6   0.009250   0.008251  -1.136466  -1.261871     0.05 (  60->  76)    0.04 (  71->  84)    0.04 (  63->  82)
 206   9.974     124.3   0.106511   0.090295  -58.684064  -54.570844     0.07 (  53->  79)    0.05 (  62->  84)    0.03 (  71->  84)
 207   9.990     124.1   0.221939   0.187459  36.587811  33.132480     0.16 (  53->  79)    0.08 (  71->  84)    0.05 (  64->  92)

sTD-DFT done

Total run time:       22.198 sec

           *** ORCA-CIS/TD-DFT FINISHED WITHOUT ERROR ***


-------------------------------------------------------------------------------
                          DFT DISPERSION CORRECTION                            
                                                                               
                              DFTD3 V3.1  Rev 1                                
                              USING zero damping                               
-------------------------------------------------------------------------------
The omegaB97X-D3 functional is recognized. Fit by Chai et al.
Active option DFTDOPT                   ...         3   

molecular C6(AA) [au] = 32501.991975 


            DFT-D V3
 parameters
 s6 scaling factor         :     1.0000 
 rs6 scaling factor        :     1.2810 
 s8 scaling factor         :     1.0000 
 rs8 scaling factor        :     1.0940 
 Damping factor alpha6     :    14.0000 
 Damping factor alpha8     :    16.0000 
 ad hoc parameters k1-k3   :    16.0000     1.3333    -4.0000 

 Edisp/kcal,au: -12.322108660663  -0.019636527982 
 E6   /kcal   :  -5.634820637 
 E8   /kcal   :  -6.687288024 
 % E8         :  54.270646427 

-------------------------   ----------------
Dispersion correction           -0.019636528
-------------------------   ----------------


-------------------------   --------------------
FINAL SINGLE POINT ENERGY     -1744.775898093357
-------------------------   --------------------


                            ***************************************
                            *     ORCA property calculations      *
                            ***************************************

                                    ---------------------
                                    Active property flags
                                    ---------------------
   (+) Dipole Moment
   (+) Quadrupole Moment


------------------------------------------------------------------------------
                       ORCA ELECTRIC PROPERTIES CALCULATION
------------------------------------------------------------------------------

Dipole Moment Calculation                       ... on
Quadrupole Moment Calculation                   ... on
Polarizability Calculation                      ... off
GBWName                                         ... total_job2.gbw
Electron density file                           ... total_job2.scfp.tmp

-------------
DIPOLE MOMENT
-------------
                                X             Y             Z
Electronic contribution:     18.97712      -2.86116       0.46620
Nuclear contribution   :    -20.28056       3.20625      -0.29828
                        -----------------------------------------
Total Dipole Moment    :     -1.30344       0.34509       0.16792
                        -----------------------------------------
Magnitude (a.u.)       :      1.35876
Magnitude (Debye)      :      3.45370


------------------------
QUADRUPOLE MOMENT (A.U.)
------------------------

                XX           YY           ZZ           XY           XZ           YZ
  NUC     22288.72319   1600.17667   1010.88929   -571.57948   -917.97409   1079.19843
  EL     -22386.88023  -1733.92036  -1149.32979    564.40455    912.99636  -1070.84067
  TOT       -98.15704   -133.74368   -138.44050     -7.17493     -4.97772      8.35776

--------------------------------------------------------------------------
[[45146,1],3]: A high-performance Open MPI point-to-point messaging module
was unable to find any relevant network interfaces:

Module: OpenFabrics (openib)
  Host: cx1-103-13-1

Another transport will be used instead, although this may result in
lower performance.
--------------------------------------------------------------------------

Timings for individual modules:

Sum of individual times         ...      130.285 sec (=   2.171 min)
GTO integral calculation        ...        4.835 sec (=   0.081 min)   3.7 %
SCF iterations                  ...      101.897 sec (=   1.698 min)  78.2 %
CIS module                      ...       23.553 sec (=   0.393 min)  18.1 %



                             ****ORCA TERMINATED NORMALLY****
TOTAL RUN TIME: 0 days 0 hours 8 minutes 17 seconds 779 msec
