
                                 *****************
                                 * O   R   C   A *
                                 *****************

           --- An Ab Initio, DFT and Semiempirical electronic structure package ---

                  #######################################################
                  #                        -***-                        #
                  #  Department of molecular theory and spectroscopy    #
                  #              Directorship: Frank Neese              #
                  # Max Planck Institute for Chemical Energy Conversion #
                  #                  D-45470 Muelheim/Ruhr              #
                  #                       Germany                       #
                  #                                                     #
                  #                  All rights reserved                #
                  #                        -***-                        #
                  #######################################################


                         Program Version 4.0.0 -  RELEASE  -


 With contributions from (in alphabetic order):
   Daniel Aravena         : Magnetic Properties
   Michael Atanasov       : Ab Initio Ligand Field Theory
   Ute Becker             : Parallelization
   Martin Brehm           : Molecular dynamics
   Dmytro Bykov           : SCF Hessian
   Vijay G. Chilkuri      : MRCI spin determinant printing
   Dipayan Datta          : RHF DLPNO-CCSD density
   Achintya Kumar Dutta   : EOM-CC, STEOM-CC
   Dmitry Ganyushin       : Spin-Orbit,Spin-Spin,Magnetic field MRCI
   Yang Guo               : DLPNO-NEVPT2, CIM, IAO-localization
   Andreas Hansen         : Spin unrestricted coupled pair/coupled cluster methods
   Lee Huntington         : MR-EOM, pCC
   Robert Izsak           : Overlap fitted RIJCOSX, COSX-SCS-MP3, EOM
   Christian Kollmar      : KDIIS, OOCD, Brueckner-CCSD(T), CCSD density
   Simone Kossmann        : Meta GGA functionals, TD-DFT gradient, OOMP2, MP2 Hessian
   Martin Krupicka        : AUTO-CI
   Dagmar Lenk            : GEPOL surface
   Dimitrios Liakos       : Extrapolation schemes; parallel MDCI
   Dimitrios Manganas     : ROCIS; embedding schemes
   Dimitrios Pantazis     : SARC Basis sets
   Taras Petrenko         : DFT Hessian,TD-DFT gradient, ASA, ECA, R-Raman, ABS, FL, XAS/XES, NRVS
   Peter Pinski           : DLPNO-MP2
   Christoph Reimann      : Effective Core Potentials
   Marius Retegan         : Local ZFS, SOC
   Christoph Riplinger    : Optimizer, TS searches, QM/MM, DLPNO-CCSD(T), (RO)-DLPNO pert. Triples
   Tobias Risthaus        : Range-separated hybrids, TD-DFT gradient, RPA, STAB
   Michael Roemelt        : Restricted open shell CIS
   Masaaki Saitow         : Open-shell DLPNO
   Barbara Sandhoefer     : DKH picture change effects
   Kantharuban Sivalingam : CASSCF convergence, NEVPT2, FIC-MRCI
   Georgi Stoychev        : AutoAux
   Boris Wezisla          : Elementary symmetry handling
   Frank Wennmohs         : Technical directorship


 We gratefully acknowledge several colleagues who have allowed us to
 interface, adapt or use parts of their codes:
   Stefan Grimme, W. Hujo, H. Kruse,             : VdW corrections, initial TS optimization,
                  C. Bannwarth                     DFT functionals, gCP, sTDA/sTD-DF
   Ed Valeev                                     : LibInt (2-el integral package), F12 methods
   Garnet Chan, S. Sharma, J. Yang, R. Olivares  : DMRG
   Ulf Ekstrom                                   : XCFun DFT Library
   Mihaly Kallay                                 : mrcc  (arbitrary order and MRCC methods)
   Jiri Pittner, Ondrej Demel                    : Mk-CCSD
   Frank Weinhold                                : gennbo (NPA and NBO analysis)
   Christopher J. Cramer and Donald G. Truhlar   : smd solvation model


 Your calculation uses the libint2 library for the computation of 2-el integrals
 For citations please refer to: http://libint.valeyev.net

 This ORCA versions uses:
   CBLAS   interface :  Fast vector & matrix operations
   LAPACKE interface :  Fast linear algebra routines
   SCALAPACK package :  Parallel linear algebra routines


Your calculation utilizes the atom-pairwise dispersion correction
with the zero-damping scheme (D30)
Cite in your paper:
S.Grimme, J.Antony, S.Ehrlich and H.Krieg, J.Chem.Phys., 132, (2010), 154104 
   

XCFun DFT library Copyright 2009-2010 Ulf Ekstrom and contributors.
See http://admol.org/xcfun for more information. This is free soft-
ware; see the source code for copying conditions. There is ABSOLUTELY
NO WARRANTY; not even for MERCHANTABILITY or FITNESS FOR A PARTICULAR
PURPOSE. For details see the documentation. Scientific users of this 
library should cite U. Ekstrom, L. Visscher, R. Bast, A. J. Thorvald-
sen and K. Ruud; J.Chem.Theor.Comp. 2010, DOI: 10.1021/ct100117s
XCFun Version 0.99 
Your calculation utilizes the basis: def2-TZVP
   F. Weigend and R. Ahlrichs, Phys. Chem. Chem. Phys. 7, 3297 (2005).

Your calculation utilizes the auxiliary basis: def2/J
   F. Weigend, Phys. Chem. Chem. Phys. 8, 1057 (2006).

================================================================================
                                        WARNINGS
                       Please study these warnings very carefully!
================================================================================

Warning: TCutStore was < 0. Adjusted to Thresh (uncritical)
INFO   : Checking CIS options ...

WARNING: CIS/ROCIS methods need fully converged wavefunctions
  ===> : Setting SCFConvForced true
         You can overwrite this default with %scf ConvForced false 


INFO   : the flag for use of LIBINT has been found!

Your calculation utilizes the atom-pairwise dispersion correction
with the zero-damping scheme (D30)
Cite in your paper:
S.Grimme, J.Antony, S.Ehrlich and H.Krieg, J.Chem.Phys., 132, (2010), 154104 
   

XCFun DFT library Copyright 2009-2010 Ulf Ekstrom and contributors.
See http://admol.org/xcfun for more information. This is free soft-
ware; see the source code for copying conditions. There is ABSOLUTELY
NO WARRANTY; not even for MERCHANTABILITY or FITNESS FOR A PARTICULAR
PURPOSE. For details see the documentation. Scientific users of this 
library should cite U. Ekstrom, L. Visscher, R. Bast, A. J. Thorvald-
sen and K. Ruud; J.Chem.Theor.Comp. 2010, DOI: 10.1021/ct100117s
XCFun Version 0.99 
Your calculation utilizes the basis: def2-TZVP
   F. Weigend and R. Ahlrichs, Phys. Chem. Chem. Phys. 7, 3297 (2005).

Your calculation utilizes the auxiliary basis: def2/J
   F. Weigend, Phys. Chem. Chem. Phys. 8, 1057 (2006).

================================================================================
                                        WARNINGS
                       Please study these warnings very carefully!
================================================================================

INFO   : Checking CIS options ...

INFO   : the flag for use of LIBINT has been found!

================================================================================
                                       INPUT FILE
================================================================================
NAME = total.inp
|  1> # 
|  2> !wB97X-D3 def2-TZVP def2/J RIJCOSX Grid5 FinalGrid6 TightSCF
|  3> %pal 
|  4>  nprocs 24
|  5> end
|  6> %tddft
|  7>   Mode sTDDFT
|  8>   nroots 2
|  9>   Ethresh 10.0
| 10>   maxcore 5000
| 11>   triplets true
| 12> end
| 13> * xyz 0 1 
| 14> C -5.05113750 -2.12851028 1.15594908
| 15> C -4.08569805 -1.25951533 0.65258292
| 16> C -4.45674720 0.05616361 0.31918979
| 17> C -5.80204364 0.46206237 0.54571337
| 18> C -6.77827487 -0.41400547 1.04433224
| 19> C -6.38299237 -1.71680626 1.33941463
| 20> C -3.75067283 1.22528856 -0.17911207
| 21> C -4.69987105 2.28683772 -0.18950326
| 22> N -5.92908326 1.80201506 0.22209356
| 23> C -4.36467909 3.60275750 -0.54434515
| 24> C -3.03489673 3.85428079 -0.87791727
| 25> C -2.08289013 2.82541282 -0.88913384
| 26> C -2.41367706 1.49491187 -0.57293089
| 27> H -1.06109448 3.05497362 -1.18139028
| 28> H -6.77236220 2.35361119 0.32182207
| 29> H -2.72998694 4.86233637 -1.14534953
| 30> H -3.06009727 -1.59873331 0.54023136
| 31> H -7.80159598 -0.08468840 1.20379940
| 32> H -7.11145599 -2.42286219 1.72907242
| 33> H -4.77095439 -3.14577111 1.41517059
| 34> N 3.03153119 -0.65559615 -0.28489485
| 35> C 2.01876242 -1.45466114 -0.79357983
| 36> C 2.41805206 -2.71892787 -1.20107595
| 37> S 4.12578918 -2.92507332 -0.94195550
| 38> C 4.20245911 -1.27352483 -0.29054565
| 39> C 0.66544032 -0.92971591 -0.85919503
| 40> S 0.29735917 0.70928281 -0.29526611
| 41> C -1.39474169 0.44617979 -0.70756998
| 42> C -1.53512545 -0.82078415 -1.24647733
| 43> N -0.39081578 -1.58121210 -1.32553700
| 44> H 1.78482567 -3.48813511 -1.62304491
| 45> H -2.47009326 -1.21965020 -1.63359313
| 46> N 6.94465593 -2.65918763 -0.28242638
| 47> C 6.68276220 -1.41351153 0.14673771
| 48> C 7.90593376 -0.83825547 0.61125461
| 49> N 8.87863400 -1.75551717 0.44976065
| 50> O 8.27284019 -2.83866408 -0.08855662
| 51> C 7.93342272 0.48933709 1.12942597
| 52> C 6.73778538 1.17459170 1.15717915
| 53> C 5.51640467 0.60438765 0.69494148
| 54> C 5.44717583 -0.68585461 0.18290564
| 55> H 4.60788759 1.19836487 0.74449147
| 56> H 6.71262996 2.19002691 1.54446150
| 57> H -5.10805082 4.39480649 -0.54307462
| 58> H 8.85448667 0.94103481 1.48644557
| 59> *
| 60> $new_job
| 61> # 
| 62> !wB97X-D3 def2-TZVP def2/J RIJCOSX Grid5 FinalGrid6 TightSCF
| 63> %pal 
| 64>  nprocs 24
| 65> end
| 66> %elprop
| 67>    dipole     true
| 68>    quadrupole true
| 69> end
| 70> %tddft
| 71>   Mode sTDDFT
| 72>   nroots 2
| 73>   Ethresh 10.0
| 74>   maxcore 5000
| 75> end
| 76> * xyz 0 1 
| 77> C -5.05113750 -2.12851028 1.15594908
| 78> C -4.08569805 -1.25951533 0.65258292
| 79> C -4.45674720 0.05616361 0.31918979
| 80> C -5.80204364 0.46206237 0.54571337
| 81> C -6.77827487 -0.41400547 1.04433224
| 82> C -6.38299237 -1.71680626 1.33941463
| 83> C -3.75067283 1.22528856 -0.17911207
| 84> C -4.69987105 2.28683772 -0.18950326
| 85> N -5.92908326 1.80201506 0.22209356
| 86> C -4.36467909 3.60275750 -0.54434515
| 87> C -3.03489673 3.85428079 -0.87791727
| 88> C -2.08289013 2.82541282 -0.88913384
| 89> C -2.41367706 1.49491187 -0.57293089
| 90> H -1.06109448 3.05497362 -1.18139028
| 91> H -6.77236220 2.35361119 0.32182207
| 92> H -2.72998694 4.86233637 -1.14534953
| 93> H -3.06009727 -1.59873331 0.54023136
| 94> H -7.80159598 -0.08468840 1.20379940
| 95> H -7.11145599 -2.42286219 1.72907242
| 96> H -4.77095439 -3.14577111 1.41517059
| 97> N 3.03153119 -0.65559615 -0.28489485
| 98> C 2.01876242 -1.45466114 -0.79357983
| 99> C 2.41805206 -2.71892787 -1.20107595
|100> S 4.12578918 -2.92507332 -0.94195550
|101> C 4.20245911 -1.27352483 -0.29054565
|102> C 0.66544032 -0.92971591 -0.85919503
|103> S 0.29735917 0.70928281 -0.29526611
|104> C -1.39474169 0.44617979 -0.70756998
|105> C -1.53512545 -0.82078415 -1.24647733
|106> N -0.39081578 -1.58121210 -1.32553700
|107> H 1.78482567 -3.48813511 -1.62304491
|108> H -2.47009326 -1.21965020 -1.63359313
|109> N 6.94465593 -2.65918763 -0.28242638
|110> C 6.68276220 -1.41351153 0.14673771
|111> C 7.90593376 -0.83825547 0.61125461
|112> N 8.87863400 -1.75551717 0.44976065
|113> O 8.27284019 -2.83866408 -0.08855662
|114> C 7.93342272 0.48933709 1.12942597
|115> C 6.73778538 1.17459170 1.15717915
|116> C 5.51640467 0.60438765 0.69494148
|117> C 5.44717583 -0.68585461 0.18290564
|118> H 4.60788759 1.19836487 0.74449147
|119> H 6.71262996 2.19002691 1.54446150
|120> H -5.10805082 4.39480649 -0.54307462
|121> H 8.85448667 0.94103481 1.48644557
|122> *
|123> 
|124>                          ****END OF INPUT****
================================================================================


                 $$$$$$$$$$$$$$$$$$$$$$$$$$$$$$$$$$$$$$$$$$$$$$ 
                 $ THERE ARE  2 JOBS TO BE PROCESSED THIS RUN $
                 $$$$$$$$$$$$$$$$$$$$$$$$$$$$$$$$$$$$$$$$$$$$$$ 




                 $$$$$$$$$$$$$$$$  JOB NUMBER  1 $$$$$$$$$$$$$$


                       ****************************
                       * Single Point Calculation *
                       ****************************

---------------------------------
CARTESIAN COORDINATES (ANGSTROEM)
---------------------------------
  C     -5.051138   -2.128510    1.155949
  C     -4.085698   -1.259515    0.652583
  C     -4.456747    0.056164    0.319190
  C     -5.802044    0.462062    0.545713
  C     -6.778275   -0.414005    1.044332
  C     -6.382992   -1.716806    1.339415
  C     -3.750673    1.225289   -0.179112
  C     -4.699871    2.286838   -0.189503
  N     -5.929083    1.802015    0.222094
  C     -4.364679    3.602757   -0.544345
  C     -3.034897    3.854281   -0.877917
  C     -2.082890    2.825413   -0.889134
  C     -2.413677    1.494912   -0.572931
  H     -1.061094    3.054974   -1.181390
  H     -6.772362    2.353611    0.321822
  H     -2.729987    4.862336   -1.145350
  H     -3.060097   -1.598733    0.540231
  H     -7.801596   -0.084688    1.203799
  H     -7.111456   -2.422862    1.729072
  H     -4.770954   -3.145771    1.415171
  N      3.031531   -0.655596   -0.284895
  C      2.018762   -1.454661   -0.793580
  C      2.418052   -2.718928   -1.201076
  S      4.125789   -2.925073   -0.941955
  C      4.202459   -1.273525   -0.290546
  C      0.665440   -0.929716   -0.859195
  S      0.297359    0.709283   -0.295266
  C     -1.394742    0.446180   -0.707570
  C     -1.535125   -0.820784   -1.246477
  N     -0.390816   -1.581212   -1.325537
  H      1.784826   -3.488135   -1.623045
  H     -2.470093   -1.219650   -1.633593
  N      6.944656   -2.659188   -0.282426
  C      6.682762   -1.413512    0.146738
  C      7.905934   -0.838255    0.611255
  N      8.878634   -1.755517    0.449761
  O      8.272840   -2.838664   -0.088557
  C      7.933423    0.489337    1.129426
  C      6.737785    1.174592    1.157179
  C      5.516405    0.604388    0.694941
  C      5.447176   -0.685855    0.182906
  H      4.607888    1.198365    0.744491
  H      6.712630    2.190027    1.544461
  H     -5.108051    4.394806   -0.543075
  H      8.854487    0.941035    1.486446

----------------------------
CARTESIAN COORDINATES (A.U.)
----------------------------
  NO LB      ZA    FRAG     MASS         X           Y           Z
   0 C     6.0000    0    12.011   -9.545267   -4.022302    2.184427
   1 C     6.0000    0    12.011   -7.720850   -2.380139    1.233203
   2 C     6.0000    0    12.011   -8.422032    0.106134    0.603181
   3 C     6.0000    0    12.011  -10.964273    0.873171    1.031249
   4 C     6.0000    0    12.011  -12.809083   -0.782357    1.973502
   5 C     6.0000    0    12.011  -12.062107   -3.244294    2.531127
   6 C     6.0000    0    12.011   -7.087744    2.315460   -0.338473
   7 C     6.0000    0    12.011   -8.881469    4.321497   -0.358109
   8 N     7.0000    0    14.007  -11.204344    3.405315    0.419696
   9 C     6.0000    0    12.011   -8.248048    6.808225   -1.028663
  10 C     6.0000    0    12.011   -5.735124    7.283535   -1.659023
  11 C     6.0000    0    12.011   -3.936092    5.339256   -1.680219
  12 C     6.0000    0    12.011   -4.561189    2.824974   -1.082682
  13 H     1.0000    0     1.008   -2.005178    5.773063   -2.232504
  14 H     1.0000    0     1.008  -12.797910    4.447681    0.608156
  15 H     1.0000    0     1.008   -5.158928    9.188484   -2.164397
  16 H     1.0000    0     1.008   -5.782746   -3.021168    1.020889
  17 H     1.0000    0     1.008  -14.742880   -0.160038    2.274851
  18 H     1.0000    0     1.008  -13.438704   -4.578546    3.267473
  19 H     1.0000    0     1.008   -9.015797   -5.944646    2.674285
  20 N     7.0000    0    14.007    5.728764   -1.238897   -0.538373
  21 C     6.0000    0    12.011    3.814908   -2.748911   -1.499649
  22 C     6.0000    0    12.011    4.569456   -5.138029   -2.269705
  23 S    16.0000    0    32.060    7.796612   -5.527587   -1.780038
  24 C     6.0000    0    12.011    7.941497   -2.406613   -0.549052
  25 C     6.0000    0    12.011    1.257500   -1.756908   -1.623643
  26 S    16.0000    0    32.060    0.561927    1.340350   -0.557972
  27 C     6.0000    0    12.011   -2.635680    0.843158   -1.337113
  28 C     6.0000    0    12.011   -2.900967   -1.551057   -2.355501
  29 N     7.0000    0    14.007   -0.738535   -2.988058   -2.504902
  30 H     1.0000    0     1.008    3.372832   -6.591620   -3.067110
  31 H     1.0000    0     1.008   -4.667800   -2.304805   -3.087044
  32 N     7.0000    0    14.007   13.123498   -5.025136   -0.533709
  33 C     6.0000    0    12.011   12.628590   -2.671150    0.277294
  34 C     6.0000    0    12.011   14.940050   -1.584073    1.155104
  35 N     7.0000    0    14.007   16.778187   -3.317447    0.849924
  36 O     8.0000    0    15.999   15.633402   -5.364298   -0.167348
  37 C     6.0000    0    12.011   14.991996    0.924713    2.134306
  38 C     6.0000    0    12.011   12.732569    2.219657    2.186752
  39 C     6.0000    0    12.011   10.424494    1.142127    1.313249
  40 C     6.0000    0    12.011   10.293671   -1.296077    0.345642
  41 H     1.0000    0     1.008    8.707646    2.264581    1.406885
  42 H     1.0000    0     1.008   12.685032    4.138551    2.918609
  43 H     1.0000    0     1.008   -9.652817    8.304981   -1.026262
  44 H     1.0000    0     1.008   16.732555    1.778298    2.808975

--------------------------------
INTERNAL COORDINATES (ANGSTROEM)
--------------------------------
 C      0   0   0     0.000000000000     0.00000000     0.00000000
 C      1   0   0     1.393055291715     0.00000000     0.00000000
 C      2   1   0     1.407067704130   119.08777242     0.00000000
 C      3   2   1     1.423337362378   118.56711503     1.76736521
 C      4   3   2     1.403261576553   122.41562266   357.73990176
 C      5   4   3     1.393058423082   117.49836443     1.02694969
 C      3   2   1     1.453856563889   134.83485963   177.91993569
 C      7   3   2     1.424068768275   106.15493774   185.19534622
 N      8   7   3     1.383989743855   109.18965186   357.73144038
 C      8   7   3     1.403535280762   122.79005238   176.44336688
 C     10   8   7     1.393863497485   117.22782118   359.09293612
 C     11  10   8     1.401788742136   121.15697771     1.54348713
 C     12  11  10     1.406995762822   122.18126146     0.25314872
 H     12  11  10     1.087280248132   119.03998808   178.31281521
 H      9   8   7     1.012582558108   125.31896274   178.71947707
 H     11  10   8     1.086584578436   119.60526991   180.84201703
 H      2   1   3     1.086070288207   119.80135276   178.91347579
 H      5   4   3     1.086768421460   121.20024273   180.40126378
 H      6   5   4     1.086741650651   119.56111709   179.89269592
 H      1   2   3     1.086516434587   119.44159796   179.99318290
 N     14  12  11     5.596571892578   120.27761730   167.53859584
 C     21  14  12     1.386710441516    77.83114687    44.40172858
 C     22  21  14     1.387031242983   115.00860749   165.30201882
 S     23  22  21     1.739541728499   110.29564763     0.00000000
 C     21  14  12     1.323986396812   162.84094146   171.50966760
 C     22  21  14     1.453049742892   119.24878046   345.26417688
 S     26  22  21     1.771952698003   120.88137493   359.83211292
 C     13  12  11     1.468399110737   119.44752689   175.12298492
 C     28  13  12     1.383953162942   128.25365303   223.30297321
 N     26  22  21     1.325744721790   125.47821110   179.71054602
 H     23  22  21     1.081995028761   126.44807455   180.00721500
 H     29  28  13     1.087712082395   124.15834945   358.45430253
 N     24  23  22     2.907177946829   167.12280617   359.87781227
 C     33  24  23     1.343309006919    88.18057456     0.18060581
 C     34  33  24     1.429280990619   108.07198302   179.96939858
 N     35  34  33     1.346697843727   107.75926751     0.00000000
 O     36  35  34     1.352767109320   105.64241175     0.00000000
 C     35  34  33     1.425397911677   120.63142527   180.00142682
 C     38  35  34     1.378365977645   116.97672476     0.00000000
 C     39  38  35     1.424979705457   122.54951908     0.00000000
 C     40  39  38     1.389855540415   122.25363735     0.00000000
 H     40  39  38     1.086585212507   118.88973489   179.99121504
 H     39  38  35     1.087073631124   119.44801756   179.99451264
 H     10   8   7     1.086252616001   121.32613852   180.06328287
 H     38  35  34     1.086210212172   121.54393080   179.99552154

---------------------------
INTERNAL COORDINATES (A.U.)
---------------------------
 C      0   0   0     0.000000000000     0.00000000     0.00000000
 C      1   0   0     2.632492990751     0.00000000     0.00000000
 C      2   1   0     2.658972612692   119.08777242     0.00000000
 C      3   2   1     2.689717811073   118.56711503     1.76736521
 C      4   3   2     2.651780073940   122.41562266   357.73990176
 C      5   4   3     2.632498908177   117.49836443     1.02694969
 C      3   2   1     2.747390743754   134.83485963   177.91993569
 C      7   3   2     2.691099967911   106.15493774   185.19534622
 N      8   7   3     2.615361588042   109.18965186   357.73144038
 C      8   7   3     2.652297299936   122.79005238   176.44336688
 C     10   8   7     2.634020278316   117.22782118   359.09293612
 C     11  10   8     2.648996820250   121.15697771     1.54348713
 C     12  11  10     2.658836663321   122.18126146     0.25314872
 H     12  11  10     2.054661899791   119.03998808   178.31281521
 H      9   8   7     1.913503722810   125.31896274   178.71947707
 H     11  10   8     2.053347274587   119.60526991   180.84201703
 H      2   1   3     2.052375406900   119.80135276   178.91347579
 H      5   4   3     2.053694687554   121.20024273   180.40126378
 H      6   5   4     2.053644098056   119.56111709   179.89269592
 H      1   2   3     2.053218501375   119.44159796   179.99318290
 N     14  12  11    10.575988165773   120.27761730   167.53859584
 C     21  14  12     2.620502961514    77.83114687    44.40172858
 C     22  21  14     2.621109188430   115.00860749   165.30201882
 S     23  22  21     3.287257465391   110.29564763     0.00000000
 C     21  14  12     2.501971695012   162.84094146   171.50966760
 C     22  21  14     2.745866073031   119.24878046   345.26417688
 S     26  22  21     3.348505321488   120.88137493   359.83211292
 C     13  12  11     2.774872174587   119.44752689   175.12298492
 C     28  13  12     2.615292460134   128.25365303   223.30297321
 N     26  22  21     2.505294447676   125.47821110   179.71054602
 H     23  22  21     2.044674282623   126.44807455   180.00721500
 H     29  28  13     2.055477948284   124.15834945   358.45430253
 N     24  23  22     5.493770142083   167.12280617   359.87781227
 C     33  24  23     2.538486136307    88.18057456     0.18060581
 C     34  33  24     2.700949640690   108.07198302   179.96939858
 N     35  34  33     2.544890109787   107.75926751     0.00000000
 O     36  35  34     2.556359359591   105.64241175     0.00000000
 C     35  34  33     2.693611684933   120.63142527   180.00142682
 C     38  35  34     2.604734210063   116.97672476     0.00000000
 C     39  38  35     2.692821389709   122.54951908     0.00000000
 C     40  39  38     2.626446337097   122.25363735     0.00000000
 H     40  39  38     2.053348472808   118.88973489   179.99121504
 H     39  38  35     2.054271450231   119.44801756   179.99451264
 H     10   8   7     2.052719956498   121.32613852   180.06328287
 H     38  35  34     2.052639824874   121.54393080   179.99552154

---------------------
BASIS SET INFORMATION
---------------------
There are 5 groups of distinct atoms

 Group   1 Type C   : 11s6p2d1f contracted to 5s3p2d1f pattern {62111/411/11/1}
 Group   2 Type N   : 11s6p2d1f contracted to 5s3p2d1f pattern {62111/411/11/1}
 Group   3 Type H   : 5s1p contracted to 3s1p pattern {311/1}
 Group   4 Type S   : 14s9p3d1f contracted to 5s5p2d1f pattern {73211/51111/21/1}
 Group   5 Type O   : 11s6p2d1f contracted to 5s3p2d1f pattern {62111/411/11/1}

Atom   0C    basis set group =>   1
Atom   1C    basis set group =>   1
Atom   2C    basis set group =>   1
Atom   3C    basis set group =>   1
Atom   4C    basis set group =>   1
Atom   5C    basis set group =>   1
Atom   6C    basis set group =>   1
Atom   7C    basis set group =>   1
Atom   8N    basis set group =>   2
Atom   9C    basis set group =>   1
Atom  10C    basis set group =>   1
Atom  11C    basis set group =>   1
Atom  12C    basis set group =>   1
Atom  13H    basis set group =>   3
Atom  14H    basis set group =>   3
Atom  15H    basis set group =>   3
Atom  16H    basis set group =>   3
Atom  17H    basis set group =>   3
Atom  18H    basis set group =>   3
Atom  19H    basis set group =>   3
Atom  20N    basis set group =>   2
Atom  21C    basis set group =>   1
Atom  22C    basis set group =>   1
Atom  23S    basis set group =>   4
Atom  24C    basis set group =>   1
Atom  25C    basis set group =>   1
Atom  26S    basis set group =>   4
Atom  27C    basis set group =>   1
Atom  28C    basis set group =>   1
Atom  29N    basis set group =>   2
Atom  30H    basis set group =>   3
Atom  31H    basis set group =>   3
Atom  32N    basis set group =>   2
Atom  33C    basis set group =>   1
Atom  34C    basis set group =>   1
Atom  35N    basis set group =>   2
Atom  36O    basis set group =>   5
Atom  37C    basis set group =>   1
Atom  38C    basis set group =>   1
Atom  39C    basis set group =>   1
Atom  40C    basis set group =>   1
Atom  41H    basis set group =>   3
Atom  42H    basis set group =>   3
Atom  43H    basis set group =>   3
Atom  44H    basis set group =>   3
-------------------------------
AUXILIARY BASIS SET INFORMATION
-------------------------------
There are 5 groups of distinct atoms

 Group   1 Type C   : 12s5p4d2f1g contracted to 6s4p3d1f1g pattern {711111/2111/211/2/1}
 Group   2 Type N   : 12s5p4d2f1g contracted to 6s4p3d1f1g pattern {711111/2111/211/2/1}
 Group   3 Type H   : 5s2p1d contracted to 3s1p1d pattern {311/2/1}
 Group   4 Type S   : 14s5p5d2f1g contracted to 8s4p3d1f1g pattern {71111111/2111/311/2/1}
 Group   5 Type O   : 12s5p4d2f1g contracted to 6s4p3d1f1g pattern {711111/2111/211/2/1}

Atom   0C    basis set group =>   1
Atom   1C    basis set group =>   1
Atom   2C    basis set group =>   1
Atom   3C    basis set group =>   1
Atom   4C    basis set group =>   1
Atom   5C    basis set group =>   1
Atom   6C    basis set group =>   1
Atom   7C    basis set group =>   1
Atom   8N    basis set group =>   2
Atom   9C    basis set group =>   1
Atom  10C    basis set group =>   1
Atom  11C    basis set group =>   1
Atom  12C    basis set group =>   1
Atom  13H    basis set group =>   3
Atom  14H    basis set group =>   3
Atom  15H    basis set group =>   3
Atom  16H    basis set group =>   3
Atom  17H    basis set group =>   3
Atom  18H    basis set group =>   3
Atom  19H    basis set group =>   3
Atom  20N    basis set group =>   2
Atom  21C    basis set group =>   1
Atom  22C    basis set group =>   1
Atom  23S    basis set group =>   4
Atom  24C    basis set group =>   1
Atom  25C    basis set group =>   1
Atom  26S    basis set group =>   4
Atom  27C    basis set group =>   1
Atom  28C    basis set group =>   1
Atom  29N    basis set group =>   2
Atom  30H    basis set group =>   3
Atom  31H    basis set group =>   3
Atom  32N    basis set group =>   2
Atom  33C    basis set group =>   1
Atom  34C    basis set group =>   1
Atom  35N    basis set group =>   2
Atom  36O    basis set group =>   5
Atom  37C    basis set group =>   1
Atom  38C    basis set group =>   1
Atom  39C    basis set group =>   1
Atom  40C    basis set group =>   1
Atom  41H    basis set group =>   3
Atom  42H    basis set group =>   3
Atom  43H    basis set group =>   3
Atom  44H    basis set group =>   3
-------------------------
ECP PARAMETER INFORMATION
-------------------------



--------------------------------------------------------------------------
[[16740,1],3]: A high-performance Open MPI point-to-point messaging module
was unable to find any relevant network interfaces:

Module: OpenFabrics (openib)
  Host: cx1-108-17-1

Another transport will be used instead, although this may result in
lower performance.
--------------------------------------------------------------------------


           ************************************************************
           *        Program running with 24 parallel MPI-processes    *
           *              working on a common directory               *
           ************************************************************
------------------------------------------------------------------------------
                           ORCA GTO INTEGRAL CALCULATION
                           -- RI-GTO INTEGRALS CHOSEN --
------------------------------------------------------------------------------

                         BASIS SET STATISTICS AND STARTUP INFO

Gaussian basis set:
 # of primitive gaussian shells          ...  732
 # of primitive gaussian functions       ... 1610
 # of contracted shells                  ...  408
 # of contracted basis functions         ... 1082
 Highest angular momentum                ...    3
 Maximum contraction depth               ...    7
Auxiliary gaussian basis set:
 # of primitive gaussian shells          ...  878
 # of primitive gaussian functions       ... 2462
 # of contracted shells                  ...  549
 # of contracted aux-basis functions     ... 1715
 Highest angular momentum                ...    4
 Maximum contraction depth               ...    7
Ratio of auxiliary to basis functions    ...  1.59
Integral package used                  ... LIBINT
 One Electron integrals                  
   ECP integrals                         ... done
 Ordering auxiliary basis shells         ... done
 Integral threshhold             Thresh  ...  2.500e-11
 Primitive cut-off               TCut    ...  2.500e-12
 Pre-screening matrix                    ... done
 Shell pair data                         ... 
 Ordering of the shell pairs             ... done (   0.013 sec) 43457 of 83436 pairs
 Determination of significant pairs      ... done (   0.000 sec)
 Creation of shell pair data             ... done (   0.012 sec)
 Storage of shell pair data              ... done (   0.115 sec)
 Shell pair data done in (   0.141 sec)
 Computing two index integrals           ... done
 Cholesky decomposition of the V-matrix  ... done


Timings:
 Total evaluation time                   ...   5.559 sec (  0.093 min)
 One electron matrix time                ...   1.493 sec (  0.025 min) = 26.9%
 Schwartz matrix evaluation time         ...   2.729 sec (  0.045 min) = 49.1%
 Two index repulsion integral time       ...   0.561 sec (  0.009 min) = 10.1%
 Cholesky decomposition of V             ...   0.587 sec (  0.010 min) = 10.6%
 Three index repulsion integral time     ...   0.000 sec (  0.000 min) =  0.0%

--------------------------------------------------------------------------
[[16810,1],4]: A high-performance Open MPI point-to-point messaging module
was unable to find any relevant network interfaces:

Module: OpenFabrics (openib)
  Host: cx1-108-17-1

Another transport will be used instead, although this may result in
lower performance.
--------------------------------------------------------------------------


           ************************************************************
           *        Program running with 24 parallel MPI-processes    *
           *              working on a common directory               *
           ************************************************************
-------------------------------------------------------------------------------
                                 ORCA SCF
-------------------------------------------------------------------------------

------------
SCF SETTINGS
------------
Hamiltonian:
 Density Functional     Method          .... DFT(GTOs)
 Exchange Functional    Exchange        .... WB97X-D3
 Correlation Functional Correlation     .... WB97X-D3
 Gradients option       PostSCFGGA      .... off
 Hybrid DFT is turned on
   Fraction HF Exchange ScalHFX         ....  0.195728
   Scaling of DF-GGA-X  ScalDFX         ....  0.000000
   Scaling of DF-GGA-C  ScalDFC         ....  1.000000
   Scaling of DF-LDA-C  ScalLDAC        ....  1.000000
   Perturbative correction              ....  0.000000
 Long-range corrected/Screened/Range-Separated Hybrid DFT is turned on
   Amount of maximum screened exact exchange              ....  0.804272
   Range separation parameter mu (erf(mu*r12)/r12)        ....  0.250000
 RI-approximation to the Coulomb term is turned on
   Number of auxiliary basis functions  .... 1715
   RIJ-COSX (HFX calculated with COS-X)).... on


General Settings:
 Integral files         IntName         .... total
 Hartree-Fock type      HFTyp           .... RHF
 Total Charge           Charge          ....    0
 Multiplicity           Mult            ....    1
 Number of Electrons    NEL             ....  232
 Basis Dimension        Dim             .... 1082
 Nuclear Repulsion      ENuc            ....   3050.8642835813 Eh

Convergence Acceleration:
 DIIS                   CNVDIIS         .... on
   Start iteration      DIISMaxIt       ....    12
   Startup error        DIISStart       ....  0.200000
   # of expansion vecs  DIISMaxEq       ....     5
   Bias factor          DIISBfac        ....   1.050
   Max. coefficient     DIISMaxC        ....  10.000
 Newton-Raphson         CNVNR           .... off
 SOSCF                  CNVSOSCF        .... on
   Start iteration      SOSCFMaxIt      ....   150
   Startup grad/error   SOSCFStart      ....  0.003300
 Level Shifting         CNVShift        .... on
   Level shift para.    LevelShift      ....    0.2500
   Turn off err/grad.   ShiftErr        ....    0.0010
 Zerner damping         CNVZerner       .... off
 Static damping         CNVDamp         .... on
   Fraction old density DampFac         ....    0.7000
   Max. Damping (<1)    DampMax         ....    0.9800
   Min. Damping (>=0)   DampMin         ....    0.0000
   Turn off err/grad.   DampErr         ....    0.1000
 Fernandez-Rico         CNVRico         .... off

SCF Procedure:
 Maximum # iterations   MaxIter         ....   125
 SCF integral mode      SCFMode         .... Direct
   Integral package                     .... LIBINT
 Reset frequeny         DirectResetFreq ....    20
 Integral Threshold     Thresh          ....  2.500e-11 Eh
 Primitive CutOff       TCut            ....  2.500e-12 Eh

Convergence Tolerance:
 Convergence Check Mode ConvCheckMode   .... Total+1el-Energy
 Convergence forced     ConvForced      .... 1
 Energy Change          TolE            ....  1.000e-08 Eh
 1-El. energy change                    ....  1.000e-05 Eh
 Orbital Gradient       TolG            ....  1.000e-05
 Orbital Rotation angle TolX            ....  1.000e-05
 DIIS Error             TolErr          ....  5.000e-07


Diagonalization of the overlap matrix:
Smallest eigenvalue                        ... 6.197e-06
Time for diagonalization                   ...    0.464 sec
Threshold for overlap eigenvalues          ... 1.000e-08
Number of eigenvalues below threshold      ... 0
Time for construction of square roots      ...    0.528 sec
Total time needed                          ...    1.010 sec

-------------------
DFT GRID GENERATION
-------------------

General Integration Accuracy     IntAcc      ...  5.010
Radial Grid Type                 RadialGrid  ... Gauss-Chebyshev
Angular Grid (max. acc.)         AngularGrid ... Lebedev-434
Angular grid pruning method      GridPruning ... 3 (G Style)
Weight generation scheme         WeightScheme... Becke
Basis function cutoff            BFCut       ...    1.0000e-11
Integration weight cutoff        WCut        ...    1.0000e-14
Grids for H and He will be reduced by one unit

# of grid points (after initial pruning)     ... 431020 (   0.0 sec)
# of grid points (after weights+screening)   ... 379089 (   1.3 sec)
nearest neighbour list constructed           ...    0.0 sec
Grid point re-assignment to atoms done       ...    0.3 sec
Grid point division into batches done        ...    4.7 sec
Reduced shell lists constructed in    5.7 sec

Total number of grid points                  ...   379089
Total number of batches                      ...     5947
Average number of points per batch           ...       63
Average number of grid points per atom       ...     8424
Average number of shells per batch           ...   138.37 (33.91%)
Average number of basis functions per batch  ...   357.80 (33.07%)
Average number of large shells per batch     ...    94.47 (68.27%)
Average number of large basis fcns per batch ...   243.70 (68.11%)
Maximum spatial batch extension              ...   7.43, 23.30, 23.29 au
Average spatial batch extension              ...   0.05,  0.07,  0.06 au

Time for grid setup =    7.699 sec

------------------------------
INITIAL GUESS: MODEL POTENTIAL
------------------------------
Loading Hartree-Fock densities                     ... done
Calculating cut-offs                               ... done
Setting up the integral package                    ... done
Initializing the effective Hamiltonian             ... done
Starting the Coulomb interaction                   ... done (   0.6 sec)
Reading the grid                                   ... done
Mapping shells                                     ... done
Starting the XC term evaluation                    ... done (   2.0 sec)
  promolecular density results
     # of electrons  =    231.993810220
     EX              =   -217.232659777
     EC              =     -8.040154323
     EX+EC           =   -225.272814101
Transforming the Hamiltonian                       ... done (   0.3 sec)
Diagonalizing the Hamiltonian                      ... done (   0.4 sec)
Back transforming the eigenvectors                 ... done (   0.1 sec)
Now organizing SCF variables                       ... done
                      ------------------
                      INITIAL GUESS DONE (  11.6 sec)
                      ------------------
--------------------
COSX GRID GENERATION
--------------------

General Integration Accuracy     IntAcc      ...  3.340
Radial Grid Type                 RadialGrid  ... Gauss-Chebyshev
Angular Grid (max. acc.)         AngularGrid ... Lebedev-50
Angular grid pruning method      GridPruning ... 3 (G Style)
Weight generation scheme         WeightScheme... Becke
Basis function cutoff            BFCut       ...    1.0000e-11
Integration weight cutoff        WCut        ...    1.0000e-14
Grids for H and He will be reduced by one unit

# of grid points (after initial pruning)     ...  22902 (   0.0 sec)
# of grid points (after weights+screening)   ...  20938 (   0.1 sec)
nearest neighbour list constructed           ...    0.0 sec
Grid point re-assignment to atoms done       ...    0.0 sec
Grid point division into batches done        ...    0.0 sec
Reduced shell lists constructed in    0.1 sec

Total number of grid points                  ...    20938
Total number of batches                      ...      350
Average number of points per batch           ...       59
Average number of grid points per atom       ...      465
Average number of shells per batch           ...   147.94 (36.26%)
Average number of basis functions per batch  ...   389.06 (35.96%)
Average number of large shells per batch     ...   102.81 (69.50%)
Average number of large basis fcns per batch ...   268.81 (69.09%)
Maximum spatial batch extension              ...   4.85,  6.19, 15.47 au
Average spatial batch extension              ...   0.11,  0.13,  0.20 au

Overlap Fitting                  UseSFitting ... on
Constructing numerical overlap ... done (      0.2 sec)
Inverting numerical overlap    ... done (      0.2 sec)
Obtaining analytic overlap     ... done (      0.0 sec)
Final contraction and storage  ... done (      0.7 sec)


General Integration Accuracy     IntAcc      ...  3.670
Radial Grid Type                 RadialGrid  ... Gauss-Chebyshev
Angular Grid (max. acc.)         AngularGrid ... Lebedev-50
Angular grid pruning method      GridPruning ... 3 (G Style)
Weight generation scheme         WeightScheme... Becke
Basis function cutoff            BFCut       ...    1.0000e-11
Integration weight cutoff        WCut        ...    1.0000e-14
Grids for H and He will be reduced by one unit

# of grid points (after initial pruning)     ...  28612 (   0.0 sec)
# of grid points (after weights+screening)   ...  26102 (   0.1 sec)
nearest neighbour list constructed           ...    0.0 sec
Grid point re-assignment to atoms done       ...    0.0 sec
Grid point division into batches done        ...    0.0 sec
Reduced shell lists constructed in    0.1 sec

Total number of grid points                  ...    26102
Total number of batches                      ...      429
Average number of points per batch           ...       60
Average number of grid points per atom       ...      580
Average number of shells per batch           ...   148.74 (36.46%)
Average number of basis functions per batch  ...   389.68 (36.02%)
Average number of large shells per batch     ...   104.16 (70.03%)
Average number of large basis fcns per batch ...   272.26 (69.87%)
Maximum spatial batch extension              ...   5.06,  7.54, 16.71 au
Average spatial batch extension              ...   0.10,  0.12,  0.20 au

Overlap Fitting                  UseSFitting ... on
Constructing numerical overlap ... done (      0.2 sec)
Inverting numerical overlap    ... done (      0.2 sec)
Obtaining analytic overlap     ... done (      0.0 sec)
Final contraction and storage  ... done (      0.6 sec)


General Integration Accuracy     IntAcc      ...  4.010
Radial Grid Type                 RadialGrid  ... Gauss-Chebyshev
Angular Grid (max. acc.)         AngularGrid ... Lebedev-110
Angular grid pruning method      GridPruning ... 3 (G Style)
Weight generation scheme         WeightScheme... Becke
Basis function cutoff            BFCut       ...    1.0000e-11
Integration weight cutoff        WCut        ...    1.0000e-14
Grids for H and He will be reduced by one unit

# of grid points (after initial pruning)     ...  55942 (   0.0 sec)
# of grid points (after weights+screening)   ...  50476 (   0.1 sec)
nearest neighbour list constructed           ...    0.0 sec
Grid point re-assignment to atoms done       ...    0.0 sec
Grid point division into batches done        ...    0.1 sec
Reduced shell lists constructed in    0.2 sec

Total number of grid points                  ...    50476
Total number of batches                      ...      808
Average number of points per batch           ...       62
Average number of grid points per atom       ...     1122
Average number of shells per batch           ...   146.60 (35.93%)
Average number of basis functions per batch  ...   383.00 (35.40%)
Average number of large shells per batch     ...   102.97 (70.24%)
Average number of large basis fcns per batch ...   269.54 (70.38%)
Maximum spatial batch extension              ...   6.09, 17.11, 17.54 au
Average spatial batch extension              ...   0.10,  0.11,  0.13 au

Overlap Fitting                  UseSFitting ... on
Constructing numerical overlap ... done (      0.4 sec)
Inverting numerical overlap    ... done (      0.2 sec)
Obtaining analytic overlap     ... done (      0.0 sec)
Final contraction and storage  ... done (      0.7 sec)

Time for X-Grid setup             =    4.528 sec
--------------
SCF ITERATIONS
--------------
ITER       Energy         Delta-E        Max-DP      RMS-DP      [F,P]     Damp
               ***  Starting incremental Fock matrix formation  ***
  0  -2067.1426405675   0.000000000000 0.06209132  0.00066115  0.1992847 0.7000
  1  -2067.3956838194  -0.253043251890 0.06289724  0.00056660  0.1005866 0.7000
                               ***Turning on DIIS***
  2  -2067.5196798097  -0.123995990283 0.18006097  0.00131925  0.0467082 0.0000
  3  -2067.7213385027  -0.201658692949 0.03396842  0.00033001  0.0483038 0.0000
  4  -2067.7563389102  -0.035000407573 0.01448672  0.00012269  0.0131644 0.0000
  5  -2067.7578556745  -0.001516764276 0.00589620  0.00005490  0.0062520 0.0000
                      *** Initiating the SOSCF procedure ***
                           *** Shutting down DIIS ***
                      *** Re-Reading the Fockian *** 
                      *** Removing any level shift *** 
ITER      Energy       Delta-E        Grad      Rot      Max-DP    RMS-DP
  6  -2067.75830114  -0.0004454696  0.001554  0.001554  0.003355  0.000034
               *** Restarting incremental Fock matrix formation ***
  7  -2067.75847307  -0.0001719257  0.001093  0.003199  0.035495  0.000254
  8  -2067.75855184  -0.0000787704  0.000575  0.004033  0.029152  0.000233
  9  -2067.75857974  -0.0000278990  0.000405  0.001236  0.024343  0.000194
 10  -2067.75859027  -0.0000105259  0.000136  0.000246  0.004624  0.000036
 11  -2067.75859071  -0.0000004429  0.000083  0.000156  0.002650  0.000020
 12  -2067.75859113  -0.0000004217  0.000012  0.000045  0.000458  0.000003
 13  -2067.75859110   0.0000000332  0.000009  0.000026  0.000512  0.000002
 14  -2067.75859119  -0.0000000915  0.000003  0.000014  0.000693  0.000003
 15  -2067.75859127  -0.0000000844  0.000003  0.000003  0.000193  0.000001
                  ***Gradient check signals convergence***
              ***Rediagonalizing the Fockian in SOSCF/NRSCF***

               *****************************************************
               *                     SUCCESS                       *
               *           SCF CONVERGED AFTER  16 CYCLES          *
               *****************************************************

Old exchange energy                            =    -67.980075793 Eh
New exchange energy                            =    -67.980596132 Eh
Exchange energy change after final integration =     -0.000520340 Eh
Total energy after final integration           =  -2067.759111566 Eh
Final COS-X integration done in                =    45.834 sec

----------------
TOTAL SCF ENERGY
----------------

Total Energy       :        -2067.75911157 Eh          -56266.58596 eV

Components:
Nuclear Repulsion  :         3050.86428358 Eh           83018.23772 eV
Electronic Energy  :        -5118.62339515 Eh         -139284.82369 eV
One Electron Energy:        -8892.01078505 Eh         -241963.91467 eV
Two Electron Energy:         3773.38738990 Eh          102679.09098 eV

Virial components:
Potential Energy   :        -4127.28712541 Eh         -112309.19237 eV
Kinetic Energy     :         2059.52801385 Eh           56042.60641 eV
Virial Ratio       :            2.00399659


DFT components:
N(Alpha)           :      116.000034161292 electrons
N(Beta)            :      116.000034161292 electrons
N(Total)           :      232.000068322584 electrons
E(XC)              :     -161.286640047520 Eh       

---------------
SCF CONVERGENCE
---------------

  Last Energy change         ...    4.5584e-08  Tolerance :   1.0000e-08
  Last MAX-Density change    ...    2.0774e-13  Tolerance :   1.0000e-07
  Last RMS-Density change    ...    3.5073e-16  Tolerance :   5.0000e-09
  Last Orbital Gradient      ...    6.3386e-07  Tolerance :   1.0000e-05
  Last Orbital Rotation      ...    1.3272e-06  Tolerance :   1.0000e-05

             **** THE GBW FILE WAS UPDATED (total.gbw) ****
             **** DENSITY FILE WAS UPDATED (total.scfp.tmp) ****
             **** ENERGY FILE WAS UPDATED (total.en.tmp) ****
----------------
ORBITAL ENERGIES
----------------

  NO   OCC          E(Eh)            E(eV) 
   0   2.0000     -89.002159     -2421.8719 
   1   2.0000     -88.988266     -2421.4938 
   2   2.0000     -19.387309      -527.5555 
   3   2.0000     -14.513490      -394.9322 
   4   2.0000     -14.512439      -394.9035 
   5   2.0000     -14.470121      -393.7520 
   6   2.0000     -14.445867      -393.0920 
   7   2.0000     -14.431179      -392.6923 
   8   2.0000     -10.375194      -282.3234 
   9   2.0000     -10.360115      -281.9131 
  10   2.0000     -10.353292      -281.7274 
  11   2.0000     -10.352003      -281.6923 
  12   2.0000     -10.343002      -281.4474 
  13   2.0000     -10.341026      -281.3936 
  14   2.0000     -10.331040      -281.1219 
  15   2.0000     -10.329015      -281.0668 
  16   2.0000     -10.327832      -281.0346 
  17   2.0000     -10.327642      -281.0294 
  18   2.0000     -10.326328      -280.9937 
  19   2.0000     -10.325655      -280.9753 
  20   2.0000     -10.324400      -280.9412 
  21   2.0000     -10.313977      -280.6576 
  22   2.0000     -10.313081      -280.6332 
  23   2.0000     -10.297330      -280.2046 
  24   2.0000     -10.291791      -280.0539 
  25   2.0000     -10.291784      -280.0537 
  26   2.0000     -10.290714      -280.0246 
  27   2.0000     -10.288125      -279.9541 
  28   2.0000     -10.286272      -279.9037 
  29   2.0000     -10.285448      -279.8813 
  30   2.0000     -10.284028      -279.8426 
  31   2.0000     -10.276760      -279.6449 
  32   2.0000      -8.097935      -220.3560 
  33   2.0000      -8.084463      -219.9894 
  34   2.0000      -6.051105      -164.6589 
  35   2.0000      -6.046823      -164.5424 
  36   2.0000      -6.045335      -164.5019 
  37   2.0000      -6.037544      -164.2899 
  38   2.0000      -6.033550      -164.1812 
  39   2.0000      -6.031767      -164.1327 
  40   2.0000      -1.332886       -36.2697 
  41   2.0000      -1.106723       -30.1155 
  42   2.0000      -1.098259       -29.8852 
  43   2.0000      -1.074739       -29.2451 
  44   2.0000      -1.042742       -28.3745 
  45   2.0000      -1.035902       -28.1883 
  46   2.0000      -0.979436       -26.6518 
  47   2.0000      -0.967224       -26.3195 
  48   2.0000      -0.958270       -26.0759 
  49   2.0000      -0.930557       -25.3217 
  50   2.0000      -0.925413       -25.1818 
  51   2.0000      -0.919058       -25.0088 
  52   2.0000      -0.901494       -24.5309 
  53   2.0000      -0.889401       -24.2018 
  54   2.0000      -0.869820       -23.6690 
  55   2.0000      -0.850584       -23.1456 
  56   2.0000      -0.841421       -22.8962 
  57   2.0000      -0.828524       -22.5453 
  58   2.0000      -0.808186       -21.9918 
  59   2.0000      -0.774930       -21.0869 
  60   2.0000      -0.768750       -20.9187 
  61   2.0000      -0.751135       -20.4394 
  62   2.0000      -0.731408       -19.9026 
  63   2.0000      -0.721482       -19.6325 
  64   2.0000      -0.715821       -19.4785 
  65   2.0000      -0.710619       -19.3369 
  66   2.0000      -0.686225       -18.6731 
  67   2.0000      -0.672143       -18.2899 
  68   2.0000      -0.661539       -18.0014 
  69   2.0000      -0.645080       -17.5535 
  70   2.0000      -0.640680       -17.4338 
  71   2.0000      -0.629216       -17.1218 
  72   2.0000      -0.628668       -17.1069 
  73   2.0000      -0.622630       -16.9426 
  74   2.0000      -0.613961       -16.7067 
  75   2.0000      -0.607983       -16.5440 
  76   2.0000      -0.591273       -16.0893 
  77   2.0000      -0.582984       -15.8638 
  78   2.0000      -0.567258       -15.4359 
  79   2.0000      -0.559871       -15.2349 
  80   2.0000      -0.552344       -15.0301 
  81   2.0000      -0.551125       -14.9969 
  82   2.0000      -0.547944       -14.9103 
  83   2.0000      -0.537809       -14.6345 
  84   2.0000      -0.534375       -14.5411 
  85   2.0000      -0.531661       -14.4672 
  86   2.0000      -0.526319       -14.3219 
  87   2.0000      -0.520473       -14.1628 
  88   2.0000      -0.518997       -14.1226 
  89   2.0000      -0.514451       -13.9989 
  90   2.0000      -0.500271       -13.6131 
  91   2.0000      -0.497309       -13.5325 
  92   2.0000      -0.496125       -13.5002 
  93   2.0000      -0.480554       -13.0765 
  94   2.0000      -0.472323       -12.8526 
  95   2.0000      -0.470068       -12.7912 
  96   2.0000      -0.465083       -12.6555 
  97   2.0000      -0.452541       -12.3143 
  98   2.0000      -0.448035       -12.1917 
  99   2.0000      -0.445481       -12.1222 
 100   2.0000      -0.443813       -12.0768 
 101   2.0000      -0.438928       -11.9438 
 102   2.0000      -0.434469       -11.8225 
 103   2.0000      -0.424164       -11.5421 
 104   2.0000      -0.399467       -10.8701 
 105   2.0000      -0.395066       -10.7503 
 106   2.0000      -0.388702       -10.5771 
 107   2.0000      -0.387909       -10.5555 
 108   2.0000      -0.379942       -10.3387 
 109   2.0000      -0.374482       -10.1902 
 110   2.0000      -0.370289       -10.0761 
 111   2.0000      -0.352331        -9.5874 
 112   2.0000      -0.330713        -8.9992 
 113   2.0000      -0.308105        -8.3840 
 114   2.0000      -0.297667        -8.0999 
 115   2.0000      -0.281209        -7.6521 
 116   0.0000      -0.048752        -1.3266 
 117   0.0000      -0.004395        -0.1196 
 118   0.0000       0.021696         0.5904 
 119   0.0000       0.032396         0.8815 
 120   0.0000       0.057514         1.5650 
 121   0.0000       0.062674         1.7054 
 122   0.0000       0.076946         2.0938 
 123   0.0000       0.081758         2.2248 
 124   0.0000       0.093542         2.5454 
 125   0.0000       0.102875         2.7994 
 126   0.0000       0.107464         2.9243 
 127   0.0000       0.110991         3.0202 
 128   0.0000       0.119753         3.2586 
 129   0.0000       0.121903         3.3172 
 130   0.0000       0.133840         3.6420 
 131   0.0000       0.135769         3.6945 
 132   0.0000       0.143045         3.8924 
 133   0.0000       0.148949         4.0531 
 134   0.0000       0.153929         4.1886 
 135   0.0000       0.155967         4.2441 
 136   0.0000       0.158380         4.3097 
 137   0.0000       0.161921         4.4061 
 138   0.0000       0.165059         4.4915 
 139   0.0000       0.169215         4.6046 
 140   0.0000       0.173588         4.7236 
 141   0.0000       0.177686         4.8351 
 142   0.0000       0.185627         5.0512 
 143   0.0000       0.187398         5.0993 
 144   0.0000       0.189610         5.1595 
 145   0.0000       0.195878         5.3301 
 146   0.0000       0.207384         5.6432 
 147   0.0000       0.210740         5.7345 
 148   0.0000       0.215513         5.8644 
 149   0.0000       0.219149         5.9634 
 150   0.0000       0.223476         6.0811 
 151   0.0000       0.226845         6.1728 
 152   0.0000       0.229673         6.2497 
 153   0.0000       0.232020         6.3136 
 154   0.0000       0.236780         6.4431 
 155   0.0000       0.244699         6.6586 
 156   0.0000       0.249347         6.7851 
 157   0.0000       0.259769         7.0687 
 158   0.0000       0.260699         7.0940 
 159   0.0000       0.262835         7.1521 
 160   0.0000       0.264099         7.1865 
 161   0.0000       0.268247         7.2994 
 162   0.0000       0.271053         7.3757 
 163   0.0000       0.274519         7.4701 
 164   0.0000       0.277097         7.5402 
 165   0.0000       0.283616         7.7176 
 166   0.0000       0.285355         7.7649 
 167   0.0000       0.286251         7.7893 
 168   0.0000       0.291960         7.9446 
 169   0.0000       0.292975         7.9722 
 170   0.0000       0.294936         8.0256 
 171   0.0000       0.298214         8.1148 
 172   0.0000       0.302181         8.2228 
 173   0.0000       0.305000         8.2995 
 174   0.0000       0.307876         8.3777 
 175   0.0000       0.311596         8.4790 
 176   0.0000       0.316477         8.6118 
 177   0.0000       0.317802         8.6478 
 178   0.0000       0.326641         8.8884 
 179   0.0000       0.328124         8.9287 
 180   0.0000       0.329695         8.9715 
 181   0.0000       0.332702         9.0533 
 182   0.0000       0.340519         9.2660 
 183   0.0000       0.342579         9.3220 
 184   0.0000       0.346360         9.4249 
 185   0.0000       0.349357         9.5065 
 186   0.0000       0.352375         9.5886 
 187   0.0000       0.354998         9.6600 
 188   0.0000       0.358197         9.7470 
 189   0.0000       0.367068         9.9884 
 190   0.0000       0.371138        10.0992 
 191   0.0000       0.372816        10.1448 
 192   0.0000       0.374280        10.1847 
 193   0.0000       0.375963        10.2305 
 194   0.0000       0.379770        10.3341 
 195   0.0000       0.380765        10.3611 
 196   0.0000       0.387750        10.5512 
 197   0.0000       0.390027        10.6132 
 198   0.0000       0.393205        10.6997 
 199   0.0000       0.397200        10.8084 
 200   0.0000       0.401351        10.9213 
 201   0.0000       0.402557        10.9541 
 202   0.0000       0.407514        11.0890 
 203   0.0000       0.408944        11.1279 
 204   0.0000       0.411760        11.2045 
 205   0.0000       0.415973        11.3192 
 206   0.0000       0.417983        11.3739 
 207   0.0000       0.427419        11.6307 
 208   0.0000       0.431259        11.7352 
 209   0.0000       0.432006        11.7555 
 210   0.0000       0.433895        11.8069 
 211   0.0000       0.439638        11.9632 
 212   0.0000       0.443209        12.0603 
 213   0.0000       0.443840        12.0775 
 214   0.0000       0.448306        12.1990 
 215   0.0000       0.449220        12.2239 
 216   0.0000       0.450792        12.2667 
 217   0.0000       0.455447        12.3933 
 218   0.0000       0.458040        12.4639 
 219   0.0000       0.459177        12.4948 
 220   0.0000       0.463439        12.6108 
 221   0.0000       0.466788        12.7019 
 222   0.0000       0.472670        12.8620 
 223   0.0000       0.476061        12.9543 
 224   0.0000       0.477442        12.9919 
 225   0.0000       0.478832        13.0297 
 226   0.0000       0.483879        13.1670 
 227   0.0000       0.485029        13.1983 
 228   0.0000       0.490709        13.3529 
 229   0.0000       0.493558        13.4304 
 230   0.0000       0.497762        13.5448 
 231   0.0000       0.499647        13.5961 
 232   0.0000       0.501488        13.6462 
 233   0.0000       0.502516        13.6741 
 234   0.0000       0.506140        13.7728 
 235   0.0000       0.511578        13.9207 
 236   0.0000       0.512510        13.9461 
 237   0.0000       0.515078        14.0160 
 238   0.0000       0.520165        14.1544 
 239   0.0000       0.520721        14.1696 
 240   0.0000       0.525679        14.3045 
 241   0.0000       0.527442        14.3524 
 242   0.0000       0.536597        14.6015 
 243   0.0000       0.538357        14.6494 
 244   0.0000       0.540272        14.7016 
 245   0.0000       0.541437        14.7333 
 246   0.0000       0.542166        14.7531 
 247   0.0000       0.549268        14.9463 
 248   0.0000       0.549444        14.9511 
 249   0.0000       0.554888        15.0993 
 250   0.0000       0.556608        15.1461 
 251   0.0000       0.558245        15.1906 
 252   0.0000       0.563083        15.3223 
 253   0.0000       0.565240        15.3810 
 254   0.0000       0.567519        15.4430 
 255   0.0000       0.576228        15.6800 
 256   0.0000       0.580550        15.7976 
 257   0.0000       0.584885        15.9155 
 258   0.0000       0.589388        16.0381 
 259   0.0000       0.592581        16.1249 
 260   0.0000       0.595066        16.1926 
 261   0.0000       0.599130        16.3031 
 262   0.0000       0.607178        16.5222 
 263   0.0000       0.610332        16.6080 
 264   0.0000       0.614004        16.7079 
 265   0.0000       0.619570        16.8593 
 266   0.0000       0.624421        16.9914 
 267   0.0000       0.632063        17.1993 
 268   0.0000       0.634973        17.2785 
 269   0.0000       0.641113        17.4456 
 270   0.0000       0.646545        17.5934 
 271   0.0000       0.652276        17.7493 
 272   0.0000       0.657725        17.8976 
 273   0.0000       0.660545        17.9743 
 274   0.0000       0.664228        18.0746 
 275   0.0000       0.671796        18.2805 
 276   0.0000       0.673923        18.3384 
 277   0.0000       0.677391        18.4327 
 278   0.0000       0.678792        18.4709 
 279   0.0000       0.684803        18.6344 
 280   0.0000       0.687053        18.6957 
 281   0.0000       0.687266        18.7014 
 282   0.0000       0.692967        18.8566 
 283   0.0000       0.695758        18.9325 
 284   0.0000       0.698968        19.0199 
 285   0.0000       0.704469        19.1696 
 286   0.0000       0.707829        19.2610 
 287   0.0000       0.710117        19.3233 
 288   0.0000       0.718452        19.5501 
 289   0.0000       0.720813        19.6143 
 290   0.0000       0.724918        19.7260 
 291   0.0000       0.727645        19.8002 
 292   0.0000       0.730824        19.8867 
 293   0.0000       0.736005        20.0277 
 294   0.0000       0.739426        20.1208 
 295   0.0000       0.741406        20.1747 
 296   0.0000       0.747156        20.3312 
 297   0.0000       0.753925        20.5154 
 298   0.0000       0.755693        20.5635 
 299   0.0000       0.756851        20.5950 
 300   0.0000       0.761364        20.7178 
 301   0.0000       0.769556        20.9407 
 302   0.0000       0.773314        21.0430 
 303   0.0000       0.773769        21.0553 
 304   0.0000       0.778452        21.1828 
 305   0.0000       0.781341        21.2614 
 306   0.0000       0.786610        21.4047 
 307   0.0000       0.787715        21.4348 
 308   0.0000       0.793929        21.6039 
 309   0.0000       0.795212        21.6388 
 310   0.0000       0.799579        21.7576 
 311   0.0000       0.800142        21.7730 
 312   0.0000       0.805786        21.9265 
 313   0.0000       0.810824        22.0636 
 314   0.0000       0.813624        22.1398 
 315   0.0000       0.817384        22.2422 
 316   0.0000       0.824077        22.4243 
 317   0.0000       0.828516        22.5451 
 318   0.0000       0.834200        22.6997 
 319   0.0000       0.838432        22.8149 
 320   0.0000       0.841247        22.8915 
 321   0.0000       0.844082        22.9686 
 322   0.0000       0.847555        23.0632 
 323   0.0000       0.856184        23.2979 
 324   0.0000       0.857491        23.3335 
 325   0.0000       0.862618        23.4730 
 326   0.0000       0.865477        23.5508 
 327   0.0000       0.870631        23.6911 
 328   0.0000       0.875053        23.8114 
 329   0.0000       0.883669        24.0458 
 330   0.0000       0.888889        24.1879 
 331   0.0000       0.890513        24.2321 
 332   0.0000       0.895625        24.3712 
 333   0.0000       0.899385        24.4735 
 334   0.0000       0.909949        24.7610 
 335   0.0000       0.914669        24.8894 
 336   0.0000       0.920613        25.0511 
 337   0.0000       0.924082        25.1455 
 338   0.0000       0.928361        25.2620 
 339   0.0000       0.931138        25.3375 
 340   0.0000       0.939699        25.5705 
 341   0.0000       0.942687        25.6518 
 342   0.0000       0.948155        25.8006 
 343   0.0000       0.953837        25.9552 
 344   0.0000       0.959607        26.1122 
 345   0.0000       0.963054        26.2060 
 346   0.0000       0.964240        26.2383 
 347   0.0000       0.967464        26.3260 
 348   0.0000       0.973911        26.5015 
 349   0.0000       0.986954        26.8564 
 350   0.0000       0.987756        26.8782 
 351   0.0000       0.995347        27.0848 
 352   0.0000       0.997956        27.1558 
 353   0.0000       1.003063        27.2947 
 354   0.0000       1.014364        27.6023 
 355   0.0000       1.016648        27.6644 
 356   0.0000       1.025855        27.9149 
 357   0.0000       1.033251        28.1162 
 358   0.0000       1.042975        28.3808 
 359   0.0000       1.045398        28.4467 
 360   0.0000       1.053625        28.6706 
 361   0.0000       1.055401        28.7189 
 362   0.0000       1.062120        28.9018 
 363   0.0000       1.065555        28.9952 
 364   0.0000       1.072019        29.1711 
 365   0.0000       1.081273        29.4229 
 366   0.0000       1.081778        29.4367 
 367   0.0000       1.085618        29.5412 
 368   0.0000       1.090642        29.6779 
 369   0.0000       1.099049        29.9066 
 370   0.0000       1.109560        30.1927 
 371   0.0000       1.112752        30.2795 
 372   0.0000       1.117419        30.4065 
 373   0.0000       1.135019        30.8854 
 374   0.0000       1.139169        30.9984 
 375   0.0000       1.145125        31.1604 
 376   0.0000       1.152017        31.3480 
 377   0.0000       1.154911        31.4267 
 378   0.0000       1.166154        31.7327 
 379   0.0000       1.166896        31.7529 
 380   0.0000       1.172556        31.9069 
 381   0.0000       1.178142        32.0589 
 382   0.0000       1.182723        32.1835 
 383   0.0000       1.185078        32.2476 
 384   0.0000       1.193921        32.4882 
 385   0.0000       1.195616        32.5344 
 386   0.0000       1.204789        32.7840 
 387   0.0000       1.217111        33.1193 
 388   0.0000       1.224711        33.3261 
 389   0.0000       1.230065        33.4718 
 390   0.0000       1.234629        33.5960 
 391   0.0000       1.243207        33.8294 
 392   0.0000       1.247073        33.9346 
 393   0.0000       1.247960        33.9587 
 394   0.0000       1.254016        34.1235 
 395   0.0000       1.263044        34.3692 
 396   0.0000       1.272337        34.6220 
 397   0.0000       1.281831        34.8804 
 398   0.0000       1.288328        35.0572 
 399   0.0000       1.291435        35.1417 
 400   0.0000       1.299350        35.3571 
 401   0.0000       1.306503        35.5518 
 402   0.0000       1.309585        35.6356 
 403   0.0000       1.316333        35.8192 
 404   0.0000       1.320231        35.9253 
 405   0.0000       1.325783        36.0764 
 406   0.0000       1.327926        36.1347 
 407   0.0000       1.332214        36.2514 
 408   0.0000       1.341242        36.4971 
 409   0.0000       1.349122        36.7115 
 410   0.0000       1.355291        36.8794 
 411   0.0000       1.357473        36.9387 
 412   0.0000       1.363220        37.0951 
 413   0.0000       1.366351        37.1803 
 414   0.0000       1.371383        37.3172 
 415   0.0000       1.374739        37.4085 
 416   0.0000       1.384706        37.6798 
 417   0.0000       1.390153        37.8280 
 418   0.0000       1.396166        37.9916 
 419   0.0000       1.409999        38.3680 
 420   0.0000       1.417211        38.5643 
 421   0.0000       1.423115        38.7249 
 422   0.0000       1.428891        38.8821 
 423   0.0000       1.433723        39.0136 
 424   0.0000       1.437142        39.1066 
 425   0.0000       1.439889        39.1814 
 426   0.0000       1.443932        39.2914 
 427   0.0000       1.451514        39.4977 
 428   0.0000       1.459076        39.7035 
 429   0.0000       1.464671        39.8557 
 430   0.0000       1.473130        40.0859 
 431   0.0000       1.485474        40.4218 
 432   0.0000       1.492222        40.6054 
 433   0.0000       1.498608        40.7792 
 434   0.0000       1.500668        40.8353 
 435   0.0000       1.503976        40.9253 
 436   0.0000       1.510145        41.0931 
 437   0.0000       1.515713        41.2447 
 438   0.0000       1.516973        41.2789 
 439   0.0000       1.518555        41.3220 
 440   0.0000       1.529628        41.6233 
 441   0.0000       1.532532        41.7023 
 442   0.0000       1.541567        41.9482 
 443   0.0000       1.546819        42.0911 
 444   0.0000       1.552070        42.2340 
 445   0.0000       1.556328        42.3498 
 446   0.0000       1.557387        42.3786 
 447   0.0000       1.562582        42.5200 
 448   0.0000       1.567062        42.6419 
 449   0.0000       1.571679        42.7676 
 450   0.0000       1.580468        43.0067 
 451   0.0000       1.581210        43.0269 
 452   0.0000       1.584560        43.1181 
 453   0.0000       1.588908        43.2364 
 454   0.0000       1.599231        43.5173 
 455   0.0000       1.600760        43.5589 
 456   0.0000       1.602745        43.6129 
 457   0.0000       1.606750        43.7219 
 458   0.0000       1.612796        43.8864 
 459   0.0000       1.617535        44.0154 
 460   0.0000       1.620912        44.1073 
 461   0.0000       1.625270        44.2258 
 462   0.0000       1.627897        44.2973 
 463   0.0000       1.636951        44.5437 
 464   0.0000       1.639381        44.6098 
 465   0.0000       1.644948        44.7613 
 466   0.0000       1.646648        44.8076 
 467   0.0000       1.652617        44.9700 
 468   0.0000       1.655460        45.0474 
 469   0.0000       1.658540        45.1312 
 470   0.0000       1.666947        45.3599 
 471   0.0000       1.669868        45.4394 
 472   0.0000       1.671826        45.4927 
 473   0.0000       1.680116        45.7183 
 474   0.0000       1.687711        45.9249 
 475   0.0000       1.689915        45.9849 
 476   0.0000       1.691865        46.0380 
 477   0.0000       1.695777        46.1444 
 478   0.0000       1.701494        46.3000 
 479   0.0000       1.708379        46.4874 
 480   0.0000       1.711964        46.5849 
 481   0.0000       1.712853        46.6091 
 482   0.0000       1.726626        46.9839 
 483   0.0000       1.731207        47.1085 
 484   0.0000       1.737805        47.2881 
 485   0.0000       1.740812        47.3699 
 486   0.0000       1.747773        47.5593 
 487   0.0000       1.749467        47.6054 
 488   0.0000       1.757966        47.8367 
 489   0.0000       1.761647        47.9368 
 490   0.0000       1.762688        47.9652 
 491   0.0000       1.767913        48.1073 
 492   0.0000       1.770489        48.1774 
 493   0.0000       1.777212        48.3604 
 494   0.0000       1.781773        48.4845 
 495   0.0000       1.783608        48.5345 
 496   0.0000       1.788514        48.6680 
 497   0.0000       1.794091        48.8197 
 498   0.0000       1.799283        48.9610 
 499   0.0000       1.801667        49.0259 
 500   0.0000       1.808663        49.2162 
 501   0.0000       1.816848        49.4389 
 502   0.0000       1.819304        49.5058 
 503   0.0000       1.824048        49.6349 
 504   0.0000       1.828751        49.7628 
 505   0.0000       1.830018        49.7973 
 506   0.0000       1.835142        49.9367 
 507   0.0000       1.845243        50.2116 
 508   0.0000       1.847476        50.2724 
 509   0.0000       1.859479        50.5990 
 510   0.0000       1.864900        50.7465 
 511   0.0000       1.868312        50.8394 
 512   0.0000       1.871724        50.9322 
 513   0.0000       1.879168        51.1348 
 514   0.0000       1.888277        51.3826 
 515   0.0000       1.903041        51.7844 
 516   0.0000       1.903912        51.8081 
 517   0.0000       1.913780        52.0766 
 518   0.0000       1.923945        52.3532 
 519   0.0000       1.927569        52.4518 
 520   0.0000       1.932129        52.5759 
 521   0.0000       1.938428        52.7473 
 522   0.0000       1.943400        52.8826 
 523   0.0000       1.949383        53.0454 
 524   0.0000       1.951809        53.1114 
 525   0.0000       1.958918        53.3049 
 526   0.0000       1.964752        53.4636 
 527   0.0000       1.965083        53.4726 
 528   0.0000       1.970386        53.6169 
 529   0.0000       1.982459        53.9455 
 530   0.0000       1.994482        54.2726 
 531   0.0000       1.997098        54.3438 
 532   0.0000       1.999923        54.4207 
 533   0.0000       2.007720        54.6329 
 534   0.0000       2.024234        55.0822 
 535   0.0000       2.027560        55.1727 
 536   0.0000       2.037829        55.4521 
 537   0.0000       2.040914        55.5361 
 538   0.0000       2.042207        55.5713 
 539   0.0000       2.047717        55.7212 
 540   0.0000       2.049282        55.7638 
 541   0.0000       2.060840        56.0783 
 542   0.0000       2.064276        56.1718 
 543   0.0000       2.069458        56.3128 
 544   0.0000       2.078475        56.5582 
 545   0.0000       2.083624        56.6983 
 546   0.0000       2.092278        56.9338 
 547   0.0000       2.104738        57.2728 
 548   0.0000       2.110105        57.4189 
 549   0.0000       2.114281        57.5325 
 550   0.0000       2.123214        57.7756 
 551   0.0000       2.132850        58.0378 
 552   0.0000       2.142193        58.2920 
 553   0.0000       2.147565        58.4382 
 554   0.0000       2.152693        58.5778 
 555   0.0000       2.160545        58.7914 
 556   0.0000       2.166580        58.9556 
 557   0.0000       2.168016        58.9947 
 558   0.0000       2.169031        59.0223 
 559   0.0000       2.174494        59.1710 
 560   0.0000       2.177830        59.2618 
 561   0.0000       2.180956        59.3468 
 562   0.0000       2.183557        59.4176 
 563   0.0000       2.186374        59.4943 
 564   0.0000       2.202585        59.9354 
 565   0.0000       2.209383        60.1204 
 566   0.0000       2.218230        60.3611 
 567   0.0000       2.223721        60.5105 
 568   0.0000       2.225102        60.5481 
 569   0.0000       2.235272        60.8248 
 570   0.0000       2.243434        61.0469 
 571   0.0000       2.248695        61.1901 
 572   0.0000       2.255863        61.3852 
 573   0.0000       2.267117        61.6914 
 574   0.0000       2.271986        61.8239 
 575   0.0000       2.277933        61.9857 
 576   0.0000       2.280146        62.0459 
 577   0.0000       2.284850        62.1739 
 578   0.0000       2.286420        62.2167 
 579   0.0000       2.302716        62.6601 
 580   0.0000       2.305112        62.7253 
 581   0.0000       2.307751        62.7971 
 582   0.0000       2.313868        62.9635 
 583   0.0000       2.322025        63.1855 
 584   0.0000       2.327116        63.3240 
 585   0.0000       2.329311        63.3838 
 586   0.0000       2.332940        63.4825 
 587   0.0000       2.338193        63.6255 
 588   0.0000       2.351039        63.9750 
 589   0.0000       2.358620        64.1813 
 590   0.0000       2.362316        64.2819 
 591   0.0000       2.367874        64.4331 
 592   0.0000       2.377380        64.6918 
 593   0.0000       2.387098        64.9562 
 594   0.0000       2.407811        65.5199 
 595   0.0000       2.411057        65.6082 
 596   0.0000       2.416894        65.7670 
 597   0.0000       2.427081        66.0442 
 598   0.0000       2.429899        66.1209 
 599   0.0000       2.437678        66.3326 
 600   0.0000       2.449337        66.6499 
 601   0.0000       2.458606        66.9021 
 602   0.0000       2.470504        67.2258 
 603   0.0000       2.480921        67.5093 
 604   0.0000       2.488694        67.7208 
 605   0.0000       2.494021        67.8658 
 606   0.0000       2.510958        68.3266 
 607   0.0000       2.516400        68.4747 
 608   0.0000       2.522104        68.6299 
 609   0.0000       2.538406        69.0735 
 610   0.0000       2.547901        69.3319 
 611   0.0000       2.550771        69.4100 
 612   0.0000       2.558532        69.6212 
 613   0.0000       2.560582        69.6770 
 614   0.0000       2.570694        69.9521 
 615   0.0000       2.574754        70.0626 
 616   0.0000       2.583239        70.2935 
 617   0.0000       2.589466        70.4630 
 618   0.0000       2.600517        70.7637 
 619   0.0000       2.617553        71.2273 
 620   0.0000       2.620052        71.2952 
 621   0.0000       2.624046        71.4039 
 622   0.0000       2.640809        71.8601 
 623   0.0000       2.645022        71.9747 
 624   0.0000       2.659828        72.3776 
 625   0.0000       2.664556        72.5062 
 626   0.0000       2.670343        72.6637 
 627   0.0000       2.674604        72.7797 
 628   0.0000       2.681606        72.9702 
 629   0.0000       2.686472        73.1026 
 630   0.0000       2.688901        73.1687 
 631   0.0000       2.693446        73.2924 
 632   0.0000       2.696457        73.3743 
 633   0.0000       2.710136        73.7465 
 634   0.0000       2.714984        73.8785 
 635   0.0000       2.721482        74.0553 
 636   0.0000       2.724587        74.1398 
 637   0.0000       2.732410        74.3526 
 638   0.0000       2.737301        74.4858 
 639   0.0000       2.741573        74.6020 
 640   0.0000       2.744875        74.6919 
 641   0.0000       2.750539        74.8460 
 642   0.0000       2.757253        75.0287 
 643   0.0000       2.762540        75.1725 
 644   0.0000       2.764291        75.2202 
 645   0.0000       2.771685        75.4214 
 646   0.0000       2.778763        75.6140 
 647   0.0000       2.779611        75.6371 
 648   0.0000       2.782705        75.7212 
 649   0.0000       2.788313        75.8739 
 650   0.0000       2.795753        76.0763 
 651   0.0000       2.797411        76.1214 
 652   0.0000       2.802035        76.2473 
 653   0.0000       2.804650        76.3184 
 654   0.0000       2.813136        76.5493 
 655   0.0000       2.816386        76.6378 
 656   0.0000       2.825591        76.8882 
 657   0.0000       2.829157        76.9853 
 658   0.0000       2.833345        77.0992 
 659   0.0000       2.840369        77.2904 
 660   0.0000       2.844602        77.4056 
 661   0.0000       2.848535        77.5126 
 662   0.0000       2.858882        77.7941 
 663   0.0000       2.859763        77.8181 
 664   0.0000       2.870090        78.0991 
 665   0.0000       2.880838        78.3916 
 666   0.0000       2.882390        78.4338 
 667   0.0000       2.886318        78.5407 
 668   0.0000       2.888147        78.5905 
 669   0.0000       2.891462        78.6807 
 670   0.0000       2.897211        78.8371 
 671   0.0000       2.901430        78.9519 
 672   0.0000       2.902573        78.9830 
 673   0.0000       2.908037        79.1317 
 674   0.0000       2.911491        79.2257 
 675   0.0000       2.917048        79.3769 
 676   0.0000       2.920840        79.4801 
 677   0.0000       2.924536        79.5807 
 678   0.0000       2.934415        79.8495 
 679   0.0000       2.937215        79.9257 
 680   0.0000       2.945995        80.1646 
 681   0.0000       2.954273        80.3898 
 682   0.0000       2.961356        80.5826 
 683   0.0000       2.966210        80.7147 
 684   0.0000       2.968826        80.7859 
 685   0.0000       2.978255        81.0424 
 686   0.0000       2.980594        81.1061 
 687   0.0000       2.984614        81.2155 
 688   0.0000       2.993508        81.4575 
 689   0.0000       2.996379        81.5356 
 690   0.0000       2.997625        81.5695 
 691   0.0000       3.010540        81.9210 
 692   0.0000       3.012798        81.9824 
 693   0.0000       3.017606        82.1132 
 694   0.0000       3.026142        82.3455 
 695   0.0000       3.036231        82.6201 
 696   0.0000       3.043961        82.8304 
 697   0.0000       3.045867        82.8823 
 698   0.0000       3.049145        82.9714 
 699   0.0000       3.050295        83.0027 
 700   0.0000       3.057109        83.1882 
 701   0.0000       3.064073        83.3777 
 702   0.0000       3.067247        83.4640 
 703   0.0000       3.073936        83.6460 
 704   0.0000       3.078575        83.7723 
 705   0.0000       3.082934        83.8909 
 706   0.0000       3.086411        83.9855 
 707   0.0000       3.093216        84.1707 
 708   0.0000       3.099437        84.3400 
 709   0.0000       3.105592        84.5075 
 710   0.0000       3.111152        84.6587 
 711   0.0000       3.126106        85.0657 
 712   0.0000       3.128625        85.1342 
[...]
 117   8.518     145.6   0.037270   0.033875  -28.210748  -27.059841     0.12 (  63->  78)    0.09 (  56->  78)    0.05 (  71->  78)
 118   8.526     145.4   0.062702   0.059594  20.275333  19.298557     0.19 (  71->  78)    0.08 (  55->  75)    0.05 (  63->  78)
 119   8.535     145.3   0.025769   0.021806  -20.109517  -19.351605     0.10 (  63->  78)    0.06 (  56->  78)    0.04 (  72->  98)
 120   8.544     145.1   0.013206   0.013436   8.895130   8.952003     0.34 (  71->  78)    0.06 (  56->  78)    0.05 (  61->  78)
 121   8.568     144.7   0.013493   0.012326  -0.115863   0.304315     0.05 (  72->  79)    0.03 (  61->  79)    0.03 (  71->  78)
 122   8.594     144.3   0.050823   0.048874  -46.439195  -45.730576     0.07 (  56->  78)    0.06 (  63->  76)    0.05 (  63->  74)
 123   8.619     143.9   0.019924   0.017843   8.100167  10.748569     0.09 (  72-> 101)    0.06 (  72-> 105)    0.03 (  71-> 105)
 124   8.625     143.7   0.003371   0.003255  14.207639  14.013063     0.09 (  67->  77)    0.07 (  67->  85)    0.05 (  67->  79)
 125   8.643     143.4   0.093206   0.086657  -110.323976  -103.820457     0.14 (  56->  78)    0.06 (  64->  78)    0.06 (  70->  78)
 126   8.666     143.1   0.002735   0.003480  -5.765669  -6.346836     0.04 (  71-> 100)    0.03 (  72-> 100)    0.03 (  71->  98)
 127   8.675     142.9   0.035663   0.034035  -19.026861  -18.945386     0.09 (  64->  78)    0.08 (  61->  78)    0.05 (  70->  78)
 128   8.695     142.6   0.011306   0.009639  73.911746  69.481230     0.14 (  63->  78)    0.07 (  70->  78)    0.06 (  56->  78)
 129   8.711     142.3   0.017906   0.015941  -17.307713  -15.167630     0.23 (  63->  78)    0.07 (  56->  78)    0.05 (  54->  73)
 130   8.723     142.1   0.013288   0.011725  17.770535  16.900895     0.31 (  54->  73)    0.16 (  59->  73)    0.06 (  58->  73)
 131   8.736     141.9   0.001962   0.001722   7.020001   7.674830     0.04 (  59->  77)    0.04 (  66->  77)    0.03 (  66->  79)
 132   8.754     141.6   0.084121   0.076194  -38.884674  -35.438403     0.05 (  52->  74)    0.05 (  59->  77)    0.04 (  71-> 100)
 133   8.781     141.2   0.025381   0.022019   9.337731   9.143133     0.05 (  69->  88)    0.04 (  69->  95)    0.04 (  69-> 100)
 134   8.794     141.0   0.027513   0.025353  -20.062504  -20.448915     0.07 (  59->  80)    0.06 (  59->  77)    0.05 (  66->  77)
 135   8.806     140.8   0.079393   0.075241  13.520750  12.360845     0.06 (  62->  75)    0.05 (  65->  80)    0.03 (  69->  85)
 136   8.820     140.6   0.017378   0.014932  -7.242979  -7.811244     0.16 (  37->  73)    0.11 (  44->  73)    0.06 (  38->  73)
 137   8.822     140.5   0.006233   0.006075  -3.163401  -3.064944     0.11 (  71->  79)    0.08 (  71->  99)    0.05 (  71->  83)
 138   8.845     140.2   0.019614   0.019432  -8.293765  -6.798362     0.04 (  71->  79)    0.03 (  71->  99)    0.03 (  62->  75)
 139   8.870     139.8   0.100350   0.091481  -21.922890  -21.087600     0.05 (  66->  79)    0.05 (  71->  79)    0.04 (  68->  84)
 140   8.882     139.6   0.031383   0.028529  -20.575301  -17.302455     0.07 (  66->  88)    0.06 (  62->  76)    0.03 (  68->  79)
 141   8.904     139.3   0.088352   0.075415  77.870891  70.505910     0.05 (  70-> 100)    0.03 (  68->  83)    0.03 (  71->  79)
 142   8.938     138.7   0.035371   0.033569  32.236736  30.869592     0.04 (  66->  88)    0.04 (  58->  77)    0.03 (  68->  83)
 143   8.956     138.4   0.015801   0.015219   9.046397  10.278042     0.07 (  55->  78)    0.04 (  62->  78)    0.03 (  64->  78)
 144   8.964     138.3   0.034793   0.027505  43.552557  40.593033     0.05 (  64->  88)    0.04 (  64->  89)    0.04 (  69->  97)
 145   8.977     138.1   0.009985   0.009431  -16.397368  -16.770220     0.06 (  55->  78)    0.04 (  66->  88)    0.04 (  67->  88)
 146   8.986     138.0   0.009675   0.008232  29.977350  27.356235     0.07 (  66->  79)    0.06 (  59->  76)    0.05 (  59->  80)
 147   8.996     137.8   0.101431   0.091500  36.976981  36.420105     0.07 (  68->  82)    0.06 (  71-> 101)    0.05 (  68->  85)
 148   9.032     137.3   0.010594   0.009032  21.476869  19.972560     0.04 (  72-> 104)    0.03 (  66->  79)    0.03 (  65->  84)
 149   9.045     137.1   0.039655   0.037484  -51.052784  -49.195923     0.05 (  58->  73)    0.03 (  67->  79)    0.02 (  38->  73)
 150   9.056     136.9   0.023421   0.021289  -22.524797  -21.490826     0.04 (  67->  79)    0.03 (  67->  81)    0.03 (  66->  88)
 151   9.071     136.7   0.021777   0.018420   4.458060   4.056682     0.07 (  72->  86)    0.03 (  69->  92)    0.03 (  67->  88)
 152   9.080     136.5   0.016388   0.015220  -24.844867  -23.390359     0.04 (  59->  80)    0.03 (  72->  86)    0.03 (  68->  79)
 153   9.097     136.3   0.006927   0.005591   1.407102   1.356650     0.13 (  58->  73)    0.06 (  59->  73)    0.03 (  72->  86)
 154   9.109     136.1   0.003037   0.002969  -6.169143  -5.896325     0.05 (  72-> 102)    0.03 (  70->  87)    0.02 (  71-> 104)
 155   9.122     135.9   0.020276   0.018475  -0.829116  -0.256897     0.03 (  68->  81)    0.03 (  67->  88)    0.03 (  70->  87)
 156   9.138     135.7   0.007873   0.006279  -5.112407  -3.604856     0.11 (  64->  86)    0.10 (  61->  79)    0.08 (  64->  79)
 157   9.144     135.6   0.011179   0.009882  19.016438  19.180338     0.03 (  60->  74)    0.02 (  57->  77)    0.02 (  50->  75)
 158   9.157     135.4   0.017131   0.016532  17.183946  16.756132     0.04 (  67->  88)    0.03 (  61->  79)    0.02 (  46->  74)
 159   9.160     135.3   0.015064   0.012564  -29.012752  -27.476019     0.03 (  63->  81)    0.02 (  63->  88)    0.02 (  63->  89)
 160   9.165     135.3   0.013804   0.012086  -6.941917  -8.712159     0.20 (  59->  73)    0.03 (  63->  81)    0.02 (  54->  77)
 161   9.180     135.1   0.019527   0.016508  10.177304   8.646442     0.05 (  59->  73)    0.05 (  58->  73)    0.04 (  34->  73)
 162   9.184     135.0   0.012067   0.011937  18.601227  16.270043     0.17 (  63->  88)    0.12 (  63->  89)    0.04 (  63->  83)
 163   9.190     134.9   0.002661   0.002927   8.224533   6.876295     0.07 (  61->  79)    0.07 (  64->  79)    0.04 (  64->  86)
 164   9.209     134.6   0.052836   0.045733  12.655202  12.267735     0.04 (  63->  88)    0.03 (  67->  81)    0.02 (  63->  89)
 165   9.223     134.4   0.039799   0.034285  -64.924249  -60.548853     0.05 (  63->  81)    0.04 (  67->  88)    0.03 (  57->  77)
 166   9.228     134.4   0.017999   0.015221  -54.682958  -51.111888     0.04 (  64->  82)    0.04 (  58->  73)    0.03 (  64->  81)
 167   9.238     134.2   0.016002   0.014903  33.778158  32.984683     0.03 (  58->  73)    0.02 (  70->  87)    0.02 (  67->  82)
 168   9.269     133.8   0.041699   0.035634  45.123996  40.885604     0.04 (  66->  93)    0.03 (  66->  92)    0.02 (  67->  93)
 169   9.272     133.7   0.006028   0.004684  27.254562  22.890102     0.03 (  62->  79)    0.02 (  54->  77)    0.02 (  71-> 105)
 170   9.275     133.7   0.001631   0.001810  -4.727308  -3.808412     0.07 (  58->  73)    0.06 (  59->  73)    0.04 (  38->  73)
 171   9.284     133.5   0.007744   0.007578  -7.416020  -7.281237     0.08 (  69->  78)    0.04 (  66->  80)    0.04 (  66->  81)
 172   9.302     133.3   0.015588   0.012391  12.816901  11.092646     0.05 (  59->  73)    0.02 (  61->  86)    0.02 (  69->  94)
 173   9.305     133.2   0.014857   0.011547  16.352430  14.832302     0.05 (  57->  73)    0.03 (  66->  80)    0.03 (  71-> 105)
 174   9.314     133.1   0.050756   0.041228  -18.864179  -17.268082     0.03 (  61->  86)    0.03 (  63->  83)    0.03 (  60->  79)
 175   9.323     133.0   0.004054   0.003610  -10.292421  -9.722503     0.05 (  57->  73)    0.04 (  59->  73)    0.04 (  53->  77)
 176   9.332     132.9   0.003345   0.002530  -17.254062  -15.493804     0.09 (  59->  73)    0.07 (  54->  73)    0.04 (  57->  73)
 177   9.348     132.6   0.034444   0.029408  21.550628  19.372573     0.12 (  57->  73)    0.03 (  60->  74)    0.03 (  56->  73)
 178   9.350     132.6   0.025122   0.019766  30.251598  27.188094     0.03 (  54->  73)    0.03 (  59->  73)    0.03 (  71-> 102)
 179   9.352     132.6   0.001614   0.001308   7.462700   6.795347     0.03 (  72->  86)    0.03 (  55->  74)    0.02 (  71->  82)
 180   9.363     132.4   0.005351   0.003980  -1.733647  -0.965088     0.05 (  72-> 104)    0.04 (  57->  73)    0.03 (  53->  77)
 181   9.390     132.0   0.004485   0.004130  -5.688682  -4.714543     0.04 (  70-> 103)    0.03 (  71-> 102)    0.03 (  65->  83)
 182   9.394     132.0   0.001150   0.001112   1.659088   1.876454     0.03 (  71->  82)    0.03 (  66->  93)    0.02 (  53->  77)
 183   9.406     131.8   0.002023   0.001926   0.802558   0.313433     0.04 (  57->  73)    0.02 (  60->  74)    0.02 (  38->  73)
 184   9.414     131.7   0.011225   0.009767  -4.676269  -4.053036     0.09 (  57->  73)    0.06 (  58->  73)    0.03 (  71->  82)
 185   9.423     131.6   0.007732   0.007025  -10.089331  -9.330196     0.03 (  60->  74)    0.03 (  58->  73)    0.02 (  37->  73)
 186   9.426     131.5   0.023221   0.019285  -10.554911  -10.382513     0.04 (  72-> 109)    0.02 (  62->  81)    0.02 (  70-> 104)
 187   9.446     131.3   0.015297   0.013361  14.150088  13.410366     0.06 (  67->  80)    0.03 (  65->  81)    0.03 (  62->  77)
 188   9.457     131.1   0.014848   0.013832  -13.139007  -12.301058     0.04 (  62->  83)    0.03 (  68->  81)    0.03 (  69->  79)
 189   9.474     130.9   0.007685   0.006380   4.820684   4.778362     0.03 (  59->  74)    0.03 (  52->  77)    0.03 (  46->  74)
 190   9.489     130.7   0.084837   0.072158  29.979420  27.717181     0.10 (  60->  79)    0.04 (  50->  75)    0.03 (  44->  74)
 191   9.491     130.6   0.017438   0.015617  -1.144258  -0.518299     0.05 (  60->  79)    0.04 (  50->  75)    0.03 (  70-> 102)
 192   9.494     130.6   0.068709   0.059836  -12.133083  -12.945321     0.11 (  60->  79)    0.05 (  67->  81)    0.03 (  67->  80)
 193   9.510     130.4   0.004150   0.003284  -25.474522  -23.518065     0.04 (  65->  75)    0.03 (  70-> 102)    0.03 (  69-> 103)
 194   9.520     130.2   0.030960   0.028895  -66.772848  -64.220386     0.09 (  65->  75)    0.04 (  72-> 105)    0.02 (  70->  82)
 195   9.527     130.1   0.007688   0.007753   6.674076   5.698959     0.03 (  72->  89)    0.02 (  69->  89)    0.02 (  70->  89)
 196   9.548     129.9   0.030843   0.027399  -66.485491  -63.138358     0.05 (  55->  78)    0.03 (  71-> 102)    0.03 (  71->  82)
 197   9.548     129.9   0.047478   0.041394  11.122581  10.314820     0.03 (  69-> 103)    0.03 (  70->  84)    0.03 (  55->  78)
 198   9.560     129.7   0.129147   0.112722  17.458064  16.612844     0.12 (  55->  78)    0.11 (  68->  78)    0.06 (  60->  79)
 199   9.589     129.3   0.029710   0.027250  26.800813  24.986270     0.06 (  67->  78)    0.04 (  61->  90)    0.03 (  61->  89)
 200   9.596     129.2   0.002405   0.002255  -16.059342  -15.255514     0.06 (  44->  74)    0.04 (  48->  75)    0.04 (  49->  74)
 201   9.608     129.0   0.054584   0.046276  29.348300  27.076726     0.16 (  67->  78)    0.07 (  68->  78)    0.03 (  55->  78)
 202   9.637     128.7   0.010357   0.009307  13.022135  13.431103     0.04 (  63->  92)    0.03 (  65->  75)    0.02 (  72->  89)
 203   9.648     128.5   0.039886   0.035978  20.252689  19.902119     0.06 (  55->  74)    0.03 (  58->  80)    0.03 (  65->  75)
 204   9.654     128.4   0.013610   0.011463  -38.033116  -34.962510     0.21 (  63->  92)    0.06 (  63->  86)    0.02 (  63->  91)
 205   9.670     128.2   0.009034   0.006879  -5.107523  -5.247137     0.04 (  72-> 105)    0.03 (  72->  97)    0.03 (  68->  78)
 206   9.684     128.0   0.000179   0.000302  -5.994843  -7.071787     0.11 (  63->  76)    0.08 (  63->  93)    0.05 (  63->  91)
 207   9.701     127.8   0.002954   0.002729   5.077847   4.862388     0.06 (  56->  74)    0.04 (  60->  74)    0.04 (  47->  75)
 208   9.706     127.7   0.022088   0.017827  19.446499  19.351807     0.06 (  68->  78)    0.05 (  67->  78)    0.05 (  72-> 107)
 209   9.713     127.6   0.006736   0.005407  21.541820  19.876336     0.09 (  55->  74)    0.07 (  46->  74)    0.04 (  72-> 107)
 210   9.726     127.5   0.008865   0.008401   3.268606   3.577055     0.04 (  56->  74)    0.02 (  62->  81)    0.02 (  67->  82)
 211   9.733     127.4   0.015240   0.012947  -8.489979  -7.791743     0.05 (  71-> 105)    0.04 (  72-> 105)    0.03 (  70-> 101)
 212   9.745     127.2   0.008299   0.007393  24.744617  23.768912     0.03 (  72-> 107)    0.03 (  71->  86)    0.02 (  67->  79)
 213   9.764     127.0   0.014570   0.011248  -12.784696  -10.841646     0.05 (  72-> 107)    0.03 (  56->  74)    0.03 (  67->  79)
 214   9.787     126.7   0.000162   0.000194  -1.133180  -3.813592     0.12 (  47->  75)    0.07 (  56->  74)    0.03 (  44->  74)
 215   9.793     126.6   0.005186   0.004093  -29.751677  -26.675175     0.03 (  69->  99)    0.03 (  71-> 105)    0.02 (  47->  75)
 216   9.800     126.5   0.004932   0.004076  -9.135279  -8.145692     0.03 (  56->  74)    0.03 (  69-> 100)    0.02 (  69->  93)
 217   9.807     126.4   0.007853   0.007319   3.090292   3.229031     0.11 (  45->  74)    0.10 (  57->  74)    0.05 (  56->  74)
 218   9.823     126.2   0.050510   0.043908  36.208017  30.923840     0.02 (  70->  93)    0.02 (  63->  92)    0.02 (  64->  76)
 219   9.836     126.1   0.080603   0.068863   1.717022   0.386386     0.03 (  67->  91)    0.03 (  67->  78)    0.02 (  66->  78)
 220   9.844     125.9   0.001837   0.001889  -9.822713  -10.291450     0.03 (  69->  94)    0.03 (  72-> 112)    0.03 (  71-> 107)
 221   9.858     125.8   0.009119   0.007924   9.212772   9.476111     0.08 (  66->  78)    0.06 (  67->  78)    0.03 (  70-> 106)
 222   9.865     125.7   0.019621   0.017280  -15.305554  -14.467372     0.08 (  66->  78)    0.03 (  67->  78)    0.03 (  72->  86)
 223   9.870     125.6   0.014117   0.011936   9.267523   7.450324     0.22 (  66->  78)    0.09 (  67->  78)    0.03 (  69->  82)
 224   9.880     125.5   0.016650   0.013651  -13.963699  -13.185848     0.07 (  66->  78)    0.03 (  67->  78)    0.02 (  67->  82)
 225   9.897     125.3   0.066740   0.060817  50.909525  49.973400     0.03 (  69->  85)    0.02 (  70-> 107)    0.02 (  70->  82)
 226   9.903     125.2   0.018280   0.015461  24.058632  22.145945     0.05 (  65->  79)    0.04 (  65->  84)    0.03 (  68->  89)
 227   9.925     124.9   0.016834   0.014950  11.010167  10.423734     0.04 (  72->  91)    0.03 (  68->  91)    0.02 (  69-> 106)
 228   9.939     124.7   0.007301   0.006306  -1.527518  -1.831320     0.13 (  48->  75)    0.07 (  48->  76)    0.06 (  47->  75)
 229   9.944     124.7   0.013241   0.011457   4.962465   5.468884     0.08 (  49->  75)    0.06 (  71-> 107)    0.05 (  49->  76)
 230   9.959     124.5   0.012650   0.011297  -15.058633  -14.736491     0.04 (  69->  82)    0.03 (  67->  82)    0.03 (  65->  79)
 231   9.967     124.4   0.038560   0.033596  -14.774149  -13.012105     0.03 (  61->  76)    0.03 (  71-> 107)    0.03 (  62->  76)
 232   9.973     124.3   0.009804   0.008102  -14.666498  -13.333406     0.05 (  64->  91)    0.04 (  72->  91)    0.02 (  61->  76)
 233   9.985     124.2   0.062549   0.050496  -34.004555  -30.503523     0.05 (  71->  86)    0.05 (  53->  73)    0.03 (  70-> 107)
 234   9.991     124.1   0.004566   0.003511   6.226021   5.321211     0.25 (  53->  73)    0.17 (  50->  73)    0.13 (  52->  73)
 235   9.994     124.1   0.020163   0.017520  -60.834515  -56.380615     0.05 (  61->  76)    0.04 (  42->  74)    0.02 (  43->  74)

sTD-DFT done

Total run time:       49.426 sec

           *** ORCA-CIS/TD-DFT FINISHED WITHOUT ERROR ***


-------------------------------------------------------------------------------
                          DFT DISPERSION CORRECTION                            
                                                                               
                              DFTD3 V3.1  Rev 1                                
                              USING zero damping                               
-------------------------------------------------------------------------------
The omegaB97X-D3 functional is recognized. Fit by Chai et al.
Active option DFTDOPT                   ...         3   

molecular C6(AA) [au] = 35564.807549 


            DFT-D V3
 parameters
 s6 scaling factor         :     1.0000 
 rs6 scaling factor        :     1.2810 
 s8 scaling factor         :     1.0000 
 rs8 scaling factor        :     1.0940 
 Damping factor alpha6     :    14.0000 
 Damping factor alpha8     :    16.0000 
 ad hoc parameters k1-k3   :    16.0000     1.3333    -4.0000 

 Edisp/kcal,au: -13.005947270365  -0.020726294057 
 E6   /kcal   :  -6.105394710 
 E8   /kcal   :  -6.900552560 
 % E8         :  53.056900943 

-------------------------   ----------------
Dispersion correction           -0.020726294
-------------------------   ----------------


-------------------------   --------------------
FINAL SINGLE POINT ENERGY     -2067.779837740499
-------------------------   --------------------


                            ***************************************
                            *     ORCA property calculations      *
                            ***************************************

                                    ---------------------
                                    Active property flags
                                    ---------------------
   (+) Dipole Moment
   (+) Quadrupole Moment


------------------------------------------------------------------------------
                       ORCA ELECTRIC PROPERTIES CALCULATION
------------------------------------------------------------------------------

Dipole Moment Calculation                       ... on
Quadrupole Moment Calculation                   ... on
Polarizability Calculation                      ... off
GBWName                                         ... total_job2.gbw
Electron density file                           ... total_job2.scfp.tmp

-------------
DIPOLE MOMENT
-------------
                                X             Y             Z
Electronic contribution:     26.15505      -8.78813      -3.48741
Nuclear contribution   :    -27.26743      10.44923       3.99841
                        -----------------------------------------
Total Dipole Moment    :     -1.11238       1.66110       0.51100
                        -----------------------------------------
Magnitude (a.u.)       :      2.06343
Magnitude (Debye)      :      5.24483


------------------------
QUADRUPOLE MOMENT (A.U.)
------------------------

                XX           YY           ZZ           XY           XZ           YZ
  NUC     20245.01353   2980.02258    512.94780  -3262.65622    -60.99319     13.19217
  EL     -20370.96982  -3114.46776   -661.38259   3267.40458     62.54127    -12.02034
  TOT      -125.95629   -134.44518   -148.43479      4.74836      1.54807      1.17183

--------------------------------------------------------------------------
[[23644,1],2]: A high-performance Open MPI point-to-point messaging module
was unable to find any relevant network interfaces:

Module: OpenFabrics (openib)
  Host: cx1-108-17-1

Another transport will be used instead, although this may result in
lower performance.
--------------------------------------------------------------------------

Timings for individual modules:

Sum of individual times         ...      201.153 sec (=   3.353 min)
GTO integral calculation        ...        5.997 sec (=   0.100 min)   3.0 %
SCF iterations                  ...      144.034 sec (=   2.401 min)  71.6 %
CIS module                      ...       51.121 sec (=   0.852 min)  25.4 %



                             ****ORCA TERMINATED NORMALLY****
TOTAL RUN TIME: 0 days 0 hours 12 minutes 55 seconds 832 msec
