   44
Geometry Step: 1246
    C     -4.36152610     -2.18816948      2.54486060      4.11270460
    C     -3.63249698     -1.40616320      1.65279881      4.08173152
    C     -4.28787034     -0.37855876      0.94746149      4.03429338
    C     -5.67333305     -0.16617565      1.19510361      3.86568365
    C     -6.41150242     -0.95663225      2.08924487      4.16289032
    C     -5.73459837     -1.97328816      2.75756030      4.06666752
    C     -3.88070585      0.63355072     -0.01532710      4.04816857
    C     -5.04220961      1.41979207     -0.27550805      3.86532834
    N     -6.10725265      0.91197804      0.44378590      5.17398089
    C     -5.03617046      2.53763437     -1.12311195      4.16027598
    C     -3.82518491      2.88517449     -1.71718839      4.07041697
    C     -2.66841263      2.12885874     -1.48749059      4.13589331
    C     -2.66604127      0.98983938     -0.66056660      3.99348429
    H     -1.74532955      2.41387880     -1.98505047      0.91760993
    H     -7.04578351      1.29226586      0.44765346      0.78360284
    H     -3.77444044      3.74844410     -2.37436969      0.91648689
    H     -2.57249358     -1.59378145      1.51675422      0.90583261
    H     -7.46980561     -0.77602776      2.25707507      0.91721923
    H     -6.27263637     -2.60561613      3.45861860      0.92055982
    H     -3.85970785     -2.98270302      3.08994823      0.91801092
    C      4.30271254     -0.62388555     -0.66191833      3.85601538
    N      3.96914886     -1.89634419     -0.39982746      5.15610138
    O      2.61447910     -1.94126356     -0.32552209      6.04746724
    C      2.09844264     -0.72046458     -0.53653309      3.77022062
    C      3.12458962      0.17626355     -0.75942434      4.27601526
    C      0.65185296     -0.55547956     -0.49754346      3.88558842
    N     -0.17680986     -1.58340633     -0.26195595      5.16023666
    O     -1.43737532     -1.07775342     -0.29337527      6.05516115
    C     -1.41110761      0.24041160     -0.53875678      3.75486730
    C     -0.09563467      0.64128680     -0.69172603      4.27710149
    H      0.27841445      1.63563174     -0.88712146      0.88534054
    H      3.04091552      1.23456948     -0.95986285      0.88857335
    N      8.95981094     -1.71346597     -0.67661731      5.14343827
    C      8.13193580     -0.66306295     -0.83974281      3.92162901
    C      6.79189971     -1.12984762     -0.68454668      3.87945974
    N      6.83960476     -2.44947610     -0.43155071      5.13259407
    O      8.15382850     -2.77082036     -0.43302799      5.91292460
    C      5.70001599     -0.20836067     -0.80992623      4.02626854
    C      6.06378393      1.10517079     -1.08162657      3.94910942
    N      7.35616956      1.55707387     -1.23165075      5.27853529
    C      8.37542186      0.71743580     -1.11860158      3.91172905
    H      5.28454904      1.86581971     -1.19101710      0.93695319
    H     -5.93955847      3.11428299     -1.30020851      0.91395889
    H      9.39051171      1.11128382     -1.24396898      0.92986957
