
                                 *****************
                                 * O   R   C   A *
                                 *****************

           --- An Ab Initio, DFT and Semiempirical electronic structure package ---

                  #######################################################
                  #                        -***-                        #
                  #  Department of molecular theory and spectroscopy    #
                  #              Directorship: Frank Neese              #
                  # Max Planck Institute for Chemical Energy Conversion #
                  #                  D-45470 Muelheim/Ruhr              #
                  #                       Germany                       #
                  #                                                     #
                  #                  All rights reserved                #
                  #                        -***-                        #
                  #######################################################


                         Program Version 4.0.0 -  RELEASE  -


 With contributions from (in alphabetic order):
   Daniel Aravena         : Magnetic Properties
   Michael Atanasov       : Ab Initio Ligand Field Theory
   Ute Becker             : Parallelization
   Martin Brehm           : Molecular dynamics
   Dmytro Bykov           : SCF Hessian
   Vijay G. Chilkuri      : MRCI spin determinant printing
   Dipayan Datta          : RHF DLPNO-CCSD density
   Achintya Kumar Dutta   : EOM-CC, STEOM-CC
   Dmitry Ganyushin       : Spin-Orbit,Spin-Spin,Magnetic field MRCI
   Yang Guo               : DLPNO-NEVPT2, CIM, IAO-localization
   Andreas Hansen         : Spin unrestricted coupled pair/coupled cluster methods
   Lee Huntington         : MR-EOM, pCC
   Robert Izsak           : Overlap fitted RIJCOSX, COSX-SCS-MP3, EOM
   Christian Kollmar      : KDIIS, OOCD, Brueckner-CCSD(T), CCSD density
   Simone Kossmann        : Meta GGA functionals, TD-DFT gradient, OOMP2, MP2 Hessian
   Martin Krupicka        : AUTO-CI
   Dagmar Lenk            : GEPOL surface
   Dimitrios Liakos       : Extrapolation schemes; parallel MDCI
   Dimitrios Manganas     : ROCIS; embedding schemes
   Dimitrios Pantazis     : SARC Basis sets
   Taras Petrenko         : DFT Hessian,TD-DFT gradient, ASA, ECA, R-Raman, ABS, FL, XAS/XES, NRVS
   Peter Pinski           : DLPNO-MP2
   Christoph Reimann      : Effective Core Potentials
   Marius Retegan         : Local ZFS, SOC
   Christoph Riplinger    : Optimizer, TS searches, QM/MM, DLPNO-CCSD(T), (RO)-DLPNO pert. Triples
   Tobias Risthaus        : Range-separated hybrids, TD-DFT gradient, RPA, STAB
   Michael Roemelt        : Restricted open shell CIS
   Masaaki Saitow         : Open-shell DLPNO
   Barbara Sandhoefer     : DKH picture change effects
   Kantharuban Sivalingam : CASSCF convergence, NEVPT2, FIC-MRCI
   Georgi Stoychev        : AutoAux
   Boris Wezisla          : Elementary symmetry handling
   Frank Wennmohs         : Technical directorship


 We gratefully acknowledge several colleagues who have allowed us to
 interface, adapt or use parts of their codes:
   Stefan Grimme, W. Hujo, H. Kruse,             : VdW corrections, initial TS optimization,
                  C. Bannwarth                     DFT functionals, gCP, sTDA/sTD-DF
   Ed Valeev                                     : LibInt (2-el integral package), F12 methods
   Garnet Chan, S. Sharma, J. Yang, R. Olivares  : DMRG
   Ulf Ekstrom                                   : XCFun DFT Library
   Mihaly Kallay                                 : mrcc  (arbitrary order and MRCC methods)
   Jiri Pittner, Ondrej Demel                    : Mk-CCSD
   Frank Weinhold                                : gennbo (NPA and NBO analysis)
   Christopher J. Cramer and Donald G. Truhlar   : smd solvation model


 Your calculation uses the libint2 library for the computation of 2-el integrals
 For citations please refer to: http://libint.valeyev.net

 This ORCA versions uses:
   CBLAS   interface :  Fast vector & matrix operations
   LAPACKE interface :  Fast linear algebra routines
   SCALAPACK package :  Parallel linear algebra routines


Your calculation utilizes the atom-pairwise dispersion correction
with the zero-damping scheme (D30)
Cite in your paper:
S.Grimme, J.Antony, S.Ehrlich and H.Krieg, J.Chem.Phys., 132, (2010), 154104 
   

XCFun DFT library Copyright 2009-2010 Ulf Ekstrom and contributors.
See http://admol.org/xcfun for more information. This is free soft-
ware; see the source code for copying conditions. There is ABSOLUTELY
NO WARRANTY; not even for MERCHANTABILITY or FITNESS FOR A PARTICULAR
PURPOSE. For details see the documentation. Scientific users of this 
library should cite U. Ekstrom, L. Visscher, R. Bast, A. J. Thorvald-
sen and K. Ruud; J.Chem.Theor.Comp. 2010, DOI: 10.1021/ct100117s
XCFun Version 0.99 
Your calculation utilizes the basis: def2-TZVP
   F. Weigend and R. Ahlrichs, Phys. Chem. Chem. Phys. 7, 3297 (2005).

Your calculation utilizes the auxiliary basis: def2/J
   F. Weigend, Phys. Chem. Chem. Phys. 8, 1057 (2006).

================================================================================
                                        WARNINGS
                       Please study these warnings very carefully!
================================================================================

Warning: TCutStore was < 0. Adjusted to Thresh (uncritical)
INFO   : Checking CIS options ...

WARNING: CIS/ROCIS methods need fully converged wavefunctions
  ===> : Setting SCFConvForced true
         You can overwrite this default with %scf ConvForced false 


INFO   : the flag for use of LIBINT has been found!

Your calculation utilizes the atom-pairwise dispersion correction
with the zero-damping scheme (D30)
Cite in your paper:
S.Grimme, J.Antony, S.Ehrlich and H.Krieg, J.Chem.Phys., 132, (2010), 154104 
   

XCFun DFT library Copyright 2009-2010 Ulf Ekstrom and contributors.
See http://admol.org/xcfun for more information. This is free soft-
ware; see the source code for copying conditions. There is ABSOLUTELY
NO WARRANTY; not even for MERCHANTABILITY or FITNESS FOR A PARTICULAR
PURPOSE. For details see the documentation. Scientific users of this 
library should cite U. Ekstrom, L. Visscher, R. Bast, A. J. Thorvald-
sen and K. Ruud; J.Chem.Theor.Comp. 2010, DOI: 10.1021/ct100117s
XCFun Version 0.99 
Your calculation utilizes the basis: def2-TZVP
   F. Weigend and R. Ahlrichs, Phys. Chem. Chem. Phys. 7, 3297 (2005).

Your calculation utilizes the auxiliary basis: def2/J
   F. Weigend, Phys. Chem. Chem. Phys. 8, 1057 (2006).

================================================================================
                                        WARNINGS
                       Please study these warnings very carefully!
================================================================================

INFO   : Checking CIS options ...

INFO   : the flag for use of LIBINT has been found!

================================================================================
                                       INPUT FILE
================================================================================
NAME = total.inp
|  1> # 
|  2> !wB97X-D3 def2-TZVP def2/J RIJCOSX Grid5 FinalGrid6 TightSCF
|  3> %pal 
|  4>  nprocs 24
|  5> end
|  6> %tddft
|  7>   Mode sTDDFT
|  8>   nroots 2
|  9>   Ethresh 10.0
| 10>   maxcore 5000
| 11>   triplets true
| 12> end
| 13> * xyz 0 1 
| 14> C 8.55411275 2.42839027 1.73616982
| 15> C 7.97951050 1.45974095 0.91696987
| 16> C 8.81565455 0.63659641 0.13910567
| 17> C 10.22271148 0.83682450 0.21534607
| 18> C 10.80469572 1.80726174 1.04518908
| 19> C 9.94788842 2.59948077 1.80534964
| 20> C 8.60040927 -0.43119476 -0.82567886
| 21> C 9.89531449 -0.80459683 -1.29330153
| 22> N 10.85202170 -0.04572016 -0.64502726
| 23> C 10.10377482 -1.78119918 -2.27832603
| 24> C 8.97532498 -2.39091233 -2.82262615
| 25> C 7.69063676 -2.04473882 -2.38595245
| 26> C 7.46533734 -1.08534020 -1.37984023
| 27> H 6.83494219 -2.55342787 -2.82408762
| 28> H 11.85052816 -0.10329942 -0.80289984
| 29> H 9.08951602 -3.14746768 -3.59375385
| 30> H 6.90019534 1.34272631 0.88575495
| 31> H 11.88280864 1.93751377 1.08778586
| 32> H 10.36180688 3.36212929 2.45983383
| 33> H 7.91299374 3.06554131 2.33933999
| 34> S 1.21487063 -0.03761066 0.59443906
| 35> C 2.23740243 -0.55735883 -0.75427927
| 36> N 1.55041915 -0.88952647 -1.83975560
| 37> N 0.19909670 -0.76068456 -1.68867077
| 38> C -0.17612893 -0.33183710 -0.48801042
| 39> C 3.67808396 -0.60875507 -0.67028476
| 40> N 4.37052720 -0.28261223 0.41336790
| 41> N 5.72355840 -0.41149051 0.25036665
| 42> C 6.08596769 -0.82912108 -0.95214503
| 43> S 4.69327192 -1.12542003 -2.02568012
| 44> C -3.04816300 0.75023823 1.70550556
| 45> C -1.77493977 0.51750050 1.21182237
| 46> C -1.55101222 -0.11166936 -0.04833086
| 47> C -2.67014280 -0.50898903 -0.81296373
| 48> C -4.00452570 -0.24282544 -0.34528530
| 49> C -4.20047978 0.35391169 0.94217717
| 50> C -5.15797369 -0.62243220 -1.11529228
| 51> C -6.43888562 -0.36886373 -0.62416480
| 52> C -6.62553261 0.24903776 0.62460703
| 53> C -5.53035510 0.61682030 1.40491057
| 54> N -5.73530210 1.13803693 2.70357555
| 55> C -6.34203472 2.25429118 2.93248676
| 56> C -6.57045745 2.68908851 4.35914948
| 57> N -5.00800916 -1.11503953 -2.43004189
| 58> C -5.52565812 -2.22512882 -2.84087738
| 59> C -6.23611369 -3.22708221 -1.95021092
| 60> N -2.50252247 -1.06402245 -2.09272825
| 61> C -2.12405473 -2.27505100 -2.32454063
| 62> C -1.90039985 -2.72499382 -3.74400584
| 63> N -3.21620153 1.26399604 3.01263544
| 64> C -2.75722063 2.41152378 3.38731909
| 65> C -2.92552935 2.83548524 4.82552458
| 66> C -2.07456228 3.40933317 2.47105388
| 67> C -6.82548928 3.20730510 1.85577466
| 68> C -5.39836085 -2.60268439 -4.29608399
| 69> C -1.85833425 -3.29518398 -1.23649067
| 70> H -0.91792842 0.81077440 1.81297260
| 71> H -7.30212795 -0.63176856 -1.22875938
| 72> H -6.55292172 4.23200786 2.10376585
| 73> H -7.91227656 3.17331872 1.77540817
| 74> H -6.40471581 2.95388868 0.88654216
| 75> H -6.19019788 1.95069961 5.05868283
| 76> H -6.07397970 3.64009887 4.55418063
| 77> H -7.63289297 2.83920015 4.55177836
| 78> H -2.25260837 3.17258171 1.42551768
| 79> H -0.99751343 3.40859164 2.64024169
| 80> H -2.43182320 4.41794929 2.67265442
| 81> H -1.95750569 3.04220182 5.28215983
| 82> H -3.51014457 3.75377406 4.88930721
| 83> H -3.42645241 2.06528836 5.40441381
| 84> H -2.21277130 -1.96164973 -4.45031489
| 85> H -0.84266594 -2.93326608 -3.90645691
| 86> H -2.44625377 -3.64499389 -3.95272652
| 87> H -0.78399647 -3.43481344 -1.11428316
| 88> H -2.26892538 -2.96866280 -0.28435190
| 89> H -2.28715069 -4.26175406 -1.49619590
| 90> H -4.88536046 -3.55864177 -4.40392875
| 91> H -6.38313948 -2.71782470 -4.74974472
| 92> H -4.84753542 -1.84806850 -4.84948349
| 93> H -7.31208161 -3.20067719 -2.12418188
| 94> H -5.89905842 -4.23829777 -2.17358803
| 95> H -6.05667437 -3.01845817 -0.89900347
| 96> H 11.10480456 -2.04222379 -2.60999001
| 97> H -7.63109470 0.43423127 0.99115956
| 98> *
| 99> $new_job
|100> # 
|101> !wB97X-D3 def2-TZVP def2/J RIJCOSX Grid5 FinalGrid6 TightSCF
|102> %pal 
|103>  nprocs 24
|104> end
|105> %elprop
|106>    dipole     true
|107>    quadrupole true
|108> end
|109> %tddft
|110>   Mode sTDDFT
|111>   nroots 2
|112>   Ethresh 10.0
|113>   maxcore 5000
|114> end
|115> * xyz 0 1 
|116> C 8.55411275 2.42839027 1.73616982
|117> C 7.97951050 1.45974095 0.91696987
|118> C 8.81565455 0.63659641 0.13910567
|119> C 10.22271148 0.83682450 0.21534607
|120> C 10.80469572 1.80726174 1.04518908
|121> C 9.94788842 2.59948077 1.80534964
|122> C 8.60040927 -0.43119476 -0.82567886
|123> C 9.89531449 -0.80459683 -1.29330153
|124> N 10.85202170 -0.04572016 -0.64502726
|125> C 10.10377482 -1.78119918 -2.27832603
|126> C 8.97532498 -2.39091233 -2.82262615
|127> C 7.69063676 -2.04473882 -2.38595245
|128> C 7.46533734 -1.08534020 -1.37984023
|129> H 6.83494219 -2.55342787 -2.82408762
|130> H 11.85052816 -0.10329942 -0.80289984
|131> H 9.08951602 -3.14746768 -3.59375385
|132> H 6.90019534 1.34272631 0.88575495
|133> H 11.88280864 1.93751377 1.08778586
|134> H 10.36180688 3.36212929 2.45983383
|135> H 7.91299374 3.06554131 2.33933999
|136> S 1.21487063 -0.03761066 0.59443906
|137> C 2.23740243 -0.55735883 -0.75427927
|138> N 1.55041915 -0.88952647 -1.83975560
|139> N 0.19909670 -0.76068456 -1.68867077
|140> C -0.17612893 -0.33183710 -0.48801042
|141> C 3.67808396 -0.60875507 -0.67028476
|142> N 4.37052720 -0.28261223 0.41336790
|143> N 5.72355840 -0.41149051 0.25036665
|144> C 6.08596769 -0.82912108 -0.95214503
|145> S 4.69327192 -1.12542003 -2.02568012
|146> C -3.04816300 0.75023823 1.70550556
|147> C -1.77493977 0.51750050 1.21182237
|148> C -1.55101222 -0.11166936 -0.04833086
|149> C -2.67014280 -0.50898903 -0.81296373
|150> C -4.00452570 -0.24282544 -0.34528530
|151> C -4.20047978 0.35391169 0.94217717
|152> C -5.15797369 -0.62243220 -1.11529228
|153> C -6.43888562 -0.36886373 -0.62416480
|154> C -6.62553261 0.24903776 0.62460703
|155> C -5.53035510 0.61682030 1.40491057
|156> N -5.73530210 1.13803693 2.70357555
|157> C -6.34203472 2.25429118 2.93248676
|158> C -6.57045745 2.68908851 4.35914948
|159> N -5.00800916 -1.11503953 -2.43004189
|160> C -5.52565812 -2.22512882 -2.84087738
|161> C -6.23611369 -3.22708221 -1.95021092
|162> N -2.50252247 -1.06402245 -2.09272825
|163> C -2.12405473 -2.27505100 -2.32454063
|164> C -1.90039985 -2.72499382 -3.74400584
|165> N -3.21620153 1.26399604 3.01263544
|166> C -2.75722063 2.41152378 3.38731909
|167> C -2.92552935 2.83548524 4.82552458
|168> C -2.07456228 3.40933317 2.47105388
|169> C -6.82548928 3.20730510 1.85577466
|170> C -5.39836085 -2.60268439 -4.29608399
|171> C -1.85833425 -3.29518398 -1.23649067
|172> H -0.91792842 0.81077440 1.81297260
|173> H -7.30212795 -0.63176856 -1.22875938
|174> H -6.55292172 4.23200786 2.10376585
|175> H -7.91227656 3.17331872 1.77540817
|176> H -6.40471581 2.95388868 0.88654216
|177> H -6.19019788 1.95069961 5.05868283
|178> H -6.07397970 3.64009887 4.55418063
|179> H -7.63289297 2.83920015 4.55177836
|180> H -2.25260837 3.17258171 1.42551768
|181> H -0.99751343 3.40859164 2.64024169
|182> H -2.43182320 4.41794929 2.67265442
|183> H -1.95750569 3.04220182 5.28215983
|184> H -3.51014457 3.75377406 4.88930721
|185> H -3.42645241 2.06528836 5.40441381
|186> H -2.21277130 -1.96164973 -4.45031489
|187> H -0.84266594 -2.93326608 -3.90645691
|188> H -2.44625377 -3.64499389 -3.95272652
|189> H -0.78399647 -3.43481344 -1.11428316
|190> H -2.26892538 -2.96866280 -0.28435190
|191> H -2.28715069 -4.26175406 -1.49619590
|192> H -4.88536046 -3.55864177 -4.40392875
|193> H -6.38313948 -2.71782470 -4.74974472
|194> H -4.84753542 -1.84806850 -4.84948349
|195> H -7.31208161 -3.20067719 -2.12418188
|196> H -5.89905842 -4.23829777 -2.17358803
|197> H -6.05667437 -3.01845817 -0.89900347
|198> H 11.10480456 -2.04222379 -2.60999001
|199> H -7.63109470 0.43423127 0.99115956
|200> *
|201> 
|202>                          ****END OF INPUT****
================================================================================


                 $$$$$$$$$$$$$$$$$$$$$$$$$$$$$$$$$$$$$$$$$$$$$$ 
                 $ THERE ARE  2 JOBS TO BE PROCESSED THIS RUN $
                 $$$$$$$$$$$$$$$$$$$$$$$$$$$$$$$$$$$$$$$$$$$$$$ 




                 $$$$$$$$$$$$$$$$  JOB NUMBER  1 $$$$$$$$$$$$$$


                       ****************************
                       * Single Point Calculation *
                       ****************************

---------------------------------
CARTESIAN COORDINATES (ANGSTROEM)
---------------------------------
  C      8.554113    2.428390    1.736170
  C      7.979510    1.459741    0.916970
  C      8.815655    0.636596    0.139106
  C     10.222711    0.836824    0.215346
  C     10.804696    1.807262    1.045189
  C      9.947888    2.599481    1.805350
  C      8.600409   -0.431195   -0.825679
  C      9.895314   -0.804597   -1.293302
  N     10.852022   -0.045720   -0.645027
  C     10.103775   -1.781199   -2.278326
  C      8.975325   -2.390912   -2.822626
  C      7.690637   -2.044739   -2.385952
  C      7.465337   -1.085340   -1.379840
  H      6.834942   -2.553428   -2.824088
  H     11.850528   -0.103299   -0.802900
  H      9.089516   -3.147468   -3.593754
  H      6.900195    1.342726    0.885755
  H     11.882809    1.937514    1.087786
  H     10.361807    3.362129    2.459834
  H      7.912994    3.065541    2.339340
  S      1.214871   -0.037611    0.594439
  C      2.237402   -0.557359   -0.754279
  N      1.550419   -0.889526   -1.839756
  N      0.199097   -0.760685   -1.688671
  C     -0.176129   -0.331837   -0.488010
  C      3.678084   -0.608755   -0.670285
  N      4.370527   -0.282612    0.413368
  N      5.723558   -0.411491    0.250367
  C      6.085968   -0.829121   -0.952145
  S      4.693272   -1.125420   -2.025680
  C     -3.048163    0.750238    1.705506
  C     -1.774940    0.517501    1.211822
  C     -1.551012   -0.111669   -0.048331
  C     -2.670143   -0.508989   -0.812964
  C     -4.004526   -0.242825   -0.345285
  C     -4.200480    0.353912    0.942177
  C     -5.157974   -0.622432   -1.115292
  C     -6.438886   -0.368864   -0.624165
  C     -6.625533    0.249038    0.624607
  C     -5.530355    0.616820    1.404911
  N     -5.735302    1.138037    2.703576
  C     -6.342035    2.254291    2.932487
  C     -6.570457    2.689089    4.359149
  N     -5.008009   -1.115040   -2.430042
  C     -5.525658   -2.225129   -2.840877
  C     -6.236114   -3.227082   -1.950211
  N     -2.502522   -1.064022   -2.092728
  C     -2.124055   -2.275051   -2.324541
  C     -1.900400   -2.724994   -3.744006
  N     -3.216202    1.263996    3.012635
  C     -2.757221    2.411524    3.387319
  C     -2.925529    2.835485    4.825525
  C     -2.074562    3.409333    2.471054
  C     -6.825489    3.207305    1.855775
  C     -5.398361   -2.602684   -4.296084
  C     -1.858334   -3.295184   -1.236491
  H     -0.917928    0.810774    1.812973
  H     -7.302128   -0.631769   -1.228759
  H     -6.552922    4.232008    2.103766
  H     -7.912277    3.173319    1.775408
  H     -6.404716    2.953889    0.886542
  H     -6.190198    1.950700    5.058683
  H     -6.073980    3.640099    4.554181
  H     -7.632893    2.839200    4.551778
  H     -2.252608    3.172582    1.425518
  H     -0.997513    3.408592    2.640242
  H     -2.431823    4.417949    2.672654
  H     -1.957506    3.042202    5.282160
  H     -3.510145    3.753774    4.889307
  H     -3.426452    2.065288    5.404414
  H     -2.212771   -1.961650   -4.450315
  H     -0.842666   -2.933266   -3.906457
  H     -2.446254   -3.644994   -3.952727
  H     -0.783996   -3.434813   -1.114283
  H     -2.268925   -2.968663   -0.284352
  H     -2.287151   -4.261754   -1.496196
  H     -4.885360   -3.558642   -4.403929
  H     -6.383139   -2.717825   -4.749745
  H     -4.847535   -1.848068   -4.849483
  H     -7.312082   -3.200677   -2.124182
  H     -5.899058   -4.238298   -2.173588
  H     -6.056674   -3.018458   -0.899003
  H     11.104805   -2.042224   -2.609990
  H     -7.631095    0.434231    0.991160

----------------------------
CARTESIAN COORDINATES (A.U.)
----------------------------
  NO LB      ZA    FRAG     MASS         X           Y           Z
   0 C     6.0000    0    12.011   16.164930    4.588993    3.280885
   1 C     6.0000    0    12.011   15.079090    2.758511    1.732822
   2 C     6.0000    0    12.011   16.659173    1.202993    0.262872
   3 C     6.0000    0    12.011   19.318125    1.581369    0.406945
   4 C     6.0000    0    12.011   20.417916    3.415230    1.975121
   5 C     6.0000    0    12.011   18.798785    4.912307    3.411616
   6 C     6.0000    0    12.011   16.252418   -0.814840   -1.560307
   7 C     6.0000    0    12.011   18.699434   -1.520468   -2.443986
   8 N     7.0000    0    14.007   20.507349   -0.086399   -1.218925
   9 C     6.0000    0    12.011   19.093367   -3.365979   -4.305412
  10 C     6.0000    0    12.011   16.960906   -4.518170   -5.333990
  11 C     6.0000    0    12.011   14.533197   -3.863996   -4.508797
  12 C     6.0000    0    12.011   14.107443   -2.050996   -2.607520
  13 H     1.0000    0     1.008   12.916169   -4.825279   -5.336752
  14 H     1.0000    0     1.008   22.394253   -0.195208   -1.517261
  15 H     1.0000    0     1.008   17.176696   -5.947852   -6.791211
  16 H     1.0000    0     1.008   13.039479    2.537385    1.673834
  17 H     1.0000    0     1.008   22.455254    3.661370    2.055617
  18 H     1.0000    0     1.008   19.580977    6.353504    4.648412
  19 H     1.0000    0     1.008   14.953391    5.793034    4.420712
  20 S    16.0000    0    32.060    2.295773   -0.071074    1.123327
  21 C     6.0000    0    12.011    4.228078   -1.053256   -1.425381
  22 N     7.0000    0    14.007    2.929868   -1.680961   -3.476634
  23 N     7.0000    0    14.007    0.376238   -1.437485   -3.191125
  24 C     6.0000    0    12.011   -0.332835   -0.627081   -0.922206
  25 C     6.0000    0    12.011    6.950571   -1.150380   -1.266655
  26 N     7.0000    0    14.007    8.259099   -0.534060    0.781152
  27 N     7.0000    0    14.007   10.815958   -0.777604    0.473124
  28 C     6.0000    0    12.011   11.500812   -1.566812   -1.799293
  29 S    16.0000    0    32.060    8.868999   -2.126736   -3.827981
  30 C     6.0000    0    12.011   -5.760193    1.417745    3.222938
  31 C     6.0000    0    12.011   -3.354150    0.977934    2.290012
  32 C     6.0000    0    12.011   -2.930988   -0.211025   -0.091332
  33 C     6.0000    0    12.011   -5.045839   -0.961850   -1.536279
  34 C     6.0000    0    12.011   -7.567457   -0.458874   -0.652495
  35 C     6.0000    0    12.011   -7.937756    0.668796    1.780457
  36 C     6.0000    0    12.011   -9.747158   -1.176226   -2.107597
  37 C     6.0000    0    12.011  -12.167730   -0.697051   -1.179501
  38 C     6.0000    0    12.011  -12.520442    0.470613    1.180336
  39 C     6.0000    0    12.011  -10.450857    1.165621    2.654896
  40 N     7.0000    0    14.007  -10.838150    2.150578    5.109017
  41 C     6.0000    0    12.011  -11.984709    4.259993    5.541597
  42 C     6.0000    0    12.011  -12.416365    5.081641    8.237599
  43 N     7.0000    0    14.007   -9.463766   -2.107119   -4.592114
  44 C     6.0000    0    12.011  -10.441981   -4.204884   -5.368480
  45 C     6.0000    0    12.011  -11.784547   -6.098302   -3.685365
  46 N     7.0000    0    14.007   -4.729082   -2.010711   -3.954683
  47 C     6.0000    0    12.011   -4.013882   -4.299223   -4.392745
  48 C     6.0000    0    12.011   -3.591235   -5.149492   -7.075146
  49 N     7.0000    0    14.007   -6.077740    2.388606    5.693056
  50 C     6.0000    0    12.011   -5.210392    4.557120    6.401105
  51 C     6.0000    0    12.011   -5.528449    5.358291    9.118920
  52 C     6.0000    0    12.011   -3.920355    6.442706    4.669615
  53 C     6.0000    0    12.011  -12.898305    6.060928    3.506906
  54 C     6.0000    0    12.011  -10.201424   -4.918361   -8.118422
  55 C     6.0000    0    12.011   -3.511743   -6.226995   -2.336629
  56 H     1.0000    0     1.008   -1.734633    1.532142    3.426022
  57 H     1.0000    0     1.008  -13.799022   -1.193870   -2.322019
  58 H     1.0000    0     1.008  -12.383227    7.997336    3.975541
  59 H     1.0000    0     1.008  -14.952036    5.996703    3.355035
  60 H     1.0000    0     1.008  -12.103159    5.582041    1.675322
  61 H     1.0000    0     1.008  -11.697779    3.686288    9.559525
  62 H     1.0000    0     1.008  -11.478158    6.878790    8.606154
  63 H     1.0000    0     1.008  -14.424077    5.365311    8.601615
  64 H     1.0000    0     1.008   -4.256813    5.995311    2.693838
  65 H     1.0000    0     1.008   -1.885027    6.441305    4.989334
  66 H     1.0000    0     1.008   -4.595480    8.348714    5.050585
  67 H     1.0000    0     1.008   -3.699150    5.748928    9.981835
  68 H     1.0000    0     1.008   -6.633212    7.093605    9.239452
  69 H     1.0000    0     1.008   -6.475057    3.902829   10.212862
  70 H     1.0000    0     1.008   -4.181532   -3.706981   -8.409876
  71 H     1.0000    0     1.008   -1.592408   -5.543070   -7.382134
  72 H     1.0000    0     1.008   -4.622750   -6.888040   -7.469571
  73 H     1.0000    0     1.008   -1.481539   -6.490857   -2.105690
  74 H     1.0000    0     1.008   -4.287648   -5.609960   -0.537347
  75 H     1.0000    0     1.008   -4.322088   -8.053548   -2.827400
  76 H     1.0000    0     1.008   -9.231993   -6.724858   -8.322219
  77 H     1.0000    0     1.008  -12.062385   -5.135944   -8.975717
  78 H     1.0000    0     1.008   -9.160514   -3.492343   -9.164196
  79 H     1.0000    0     1.008  -13.817832   -6.048403   -4.014122
  80 H     1.0000    0     1.008  -11.147605   -8.009222   -4.107486
  81 H     1.0000    0     1.008  -11.445456   -5.704059   -1.698870
  82 H     1.0000    0     1.008   20.985039   -3.859244   -4.932166
  83 H     1.0000    0     1.008  -14.420679    0.820578    1.873020

--------------------------------
INTERNAL COORDINATES (ANGSTROEM)
--------------------------------
 C      0   0   0     0.000000000000     0.00000000     0.00000000
 C      1   0   0     1.392672900907     0.00000000     0.00000000
 C      2   1   0     1.407755845210   119.12116805     0.00000000
 C      3   2   1     1.423275479617   118.38077895   359.53366484
 C      4   3   2     1.403243925208   122.61453722     0.82993406
 C      5   4   3     1.392685828824   117.45305223   359.46376803
 C      3   2   1     1.455100581616   135.03899994   181.50019314
 C      7   3   2     1.426492059621   105.97159563   177.41789133
 N      8   7   3     1.382549100423   109.31515635     1.25582370
 C      8   7   3     1.402669285616   123.18645303   182.29454286
 C     10   8   7     1.393345537658   117.29911460     0.77330929
 C     11  10   8     1.400337045823   120.86442830   359.34121984
 C     12  11  10     1.408356254626   122.54315937   359.42513807
 H     12  11  10     1.087630531894   118.72058317   180.91226175
 H      9   8   7     1.012548405440   125.31486422   180.92435416
 H     11  10   8     1.086302683849   119.79696755   179.53956425
 H      2   1   3     1.086088399630   120.12304630   179.75177272
 H      5   4   3     1.086787718580   121.16438318   179.77058876
 H      6   5   4     1.086881231574   119.57290148   180.01682606
 H      1   2   3     1.086650489686   119.39982255   180.06546971
 S     17   2   1     5.857739509115   172.45015872   212.27267202
 C     21  17   2     1.770522684381    63.03322358   307.24018506
 N     22  21  17     1.326853507759   113.43172485   196.88482036
 N     23  22  21     1.365832796320   113.46217968     0.00000000
 C     24  23  22     1.329018319445   114.18639143   359.84939992
 C     22  21  17     1.444042908670   122.84212437    16.79319383
 N     26  22  21     1.326706403177   124.01930363     0.35219419
 N     27  26  22     1.368894607605   113.29550893   180.03169705
 C     28  27  26     1.323552087004   114.11285372     0.27957189
 S     26  22  21     1.770493111235   122.54185174   180.18004973
 C     25  24  23     3.772396993100   146.38869556   175.50540371
 C     31  25  24     1.385275184382    17.22293711   192.84575144
 C     32  31  25     1.426178257954   122.23020309     0.71914539
 C     33  32  31     1.412437468048   118.55663135   359.95877062
 C     34  33  32     1.438799462865   120.45314351     1.98930136
 C     35  34  33     1.432498801203   119.73990576   356.09584211
 C     35  34  33     1.437864495396   121.40402645   179.16886415
 C     37  35  34     1.395076536612   120.00237103   178.99688773
 C     38  37  35     1.405727723858   120.96676776   359.60017276
 C     39  38  37     1.394113119397   120.58886938   359.66928837
 N     40  39  38     1.414284546503   119.82424637   185.09755002
 C     41  40  39     1.290948629837   123.33938046   295.77727164
 C     42  41  40     1.508838022583   119.20829455   176.96195431
 N     37  35  34     1.411990750261   120.36765955   351.93384349
 C     44  37  35     1.291915042642   123.59523059   127.63460548
 C     45  44  37     1.517216021417   124.63794686   353.15968937
 N     34  33  32     1.404975408681   120.64444143   176.41037283
 C     47  34  33     1.289792602963   124.72533738    76.80321384
 C     48  47  34     1.505772734850   119.57583868   183.74628889
 N     31  25  24     1.414486676533   137.05103741   184.48781243
 C     50  31  25     1.291460885281   123.27205898    64.12877348
 C     51  50  31     1.508809522856   119.11586257   183.28483388
 C     51  50  31     1.516966689368   124.69125671     4.86750999
 C     42  41  40     1.516994657072   124.55090466   355.26749734
 C     45  44  37     1.508767404597   119.20471129   175.03806389
 C     48  47  34     1.514969103920   123.68553595     2.58019137
 H     32  31  25     1.087133677833   118.82700943   181.68965684
 H     38  37  35     1.086204803942   119.32427325   178.08540874
 H     54  42  41     1.088948323583   110.47220083   225.78845017
 H     54  42  41     1.090284567767   110.51208653   107.32597002
 H     54  42  41     1.086591843351   111.29565391   347.02860166
 H     43  42  41     1.085892451388   111.10963474   358.70266268
 H     43  42  41     1.090388926275   110.58052920   119.33497713
 H     43  42  41     1.090141561464   110.75053787   237.75026863
 H     53  51  50     1.086691128834   111.35226140    15.43337972
 H     53  51  50     1.090256524954   110.51085951   255.24882123
 H     53  51  50     1.088845544699   110.47583901   136.75415592
 H     52  51  50     1.090099675401   110.70259318   122.04530896
 H     52  51  50     1.090457489443   110.62101959   240.44422706
 H     52  51  50     1.085928122212   111.11865595     1.13954258
 H     49  48  47     1.085883325512   111.12359262   353.12133045
 H     49  48  47     1.090214982833   109.97793410   113.21630533
 H     49  48  47     1.089917865272   110.99977746   231.70793597
 H     56  48  47     1.090244342859   109.85137392   255.12511812
 H     56  48  47     1.087092173811   111.13335334    14.84284218
 H     56  48  47     1.088847126669   110.93897817   136.37859984
 H     55  45  44     1.090254284457   110.76413408   121.24501018
 H     55  45  44     1.090345953831   110.58047537   239.60791163
 H     55  45  44     1.085865922836   111.12737078     0.33588742
 H     46  45  44     1.090261475461   110.63765764   106.99345514
 H     46  45  44     1.089064046369   110.35606048   225.42983345
 H     46  45  44     1.086627609885   111.33306291   346.60922704
 H     10   8   7     1.086367977722   121.24010091   180.10498678
 H     39  38  37     1.086191746535   119.84465627   180.24486974

---------------------------
INTERNAL COORDINATES (A.U.)
---------------------------
 C      0   0   0     0.000000000000     0.00000000     0.00000000
 C      1   0   0     2.631770376848     0.00000000     0.00000000
 C      2   1   0     2.660273010874   119.12116805     0.00000000
 C      3   2   1     2.689600869601   118.38077895   359.53366484
 C      4   3   2     2.651746717732   122.61453722     0.82993406
 C      5   4   3     2.631794807070   117.45305223   359.46376803
 C      3   2   1     2.749741596564   135.03899994   181.50019314
 C      7   3   2     2.695679324897   105.97159563   177.41789133
 N      8   7   3     2.612639166499   109.31515635     1.25582370
 C      8   7   3     2.650660806277   123.18645303   182.29454286
 C     10   8   7     2.633041476095   117.29911460     0.77330929
 C     11  10   8     2.646253511790   120.86442830   359.34121984
 C     12  11  10     2.661407620238   122.54315937   359.42513807
 H     12  11  10     2.055323840171   118.72058317   180.91226175
 H      9   8   7     1.913439183621   125.31486422   180.92435416
 H     11  10   8     2.052814571018   119.79696755   179.53956425
 H      2   1   3     2.052409632529   120.12304630   179.75177272
 H      5   4   3     2.053731153825   121.16438318   179.77058876
 H      6   5   4     2.053907867773   119.57290148   180.01682606
 H      1   2   3     2.053471828797   119.39982255   180.06546971
 S     17   2   1    11.069523436078   172.45015872   212.27267202
 C     21  17   2     3.345802987375    63.03322358   307.24018506
 N     22  21  17     2.507389749498   113.43172485   196.88482036
 N     23  22  21     2.581049929772   113.46217968     0.00000000
 C     24  23  22     2.511480650715   114.18639143   359.84939992
 C     22  21  17     2.728845623017   122.84212437    16.79319383
 N     26  22  21     2.507111762124   124.01930363     0.35219419
 N     27  26  22     2.586835914576   113.29550893   180.03169705
 C     28  27  26     2.501150968418   114.11285372     0.27957189
 S     26  22  21     3.345747102228   122.54185174   180.18004973
 C     25  24  23     7.128797185387   146.38869556   175.50540371
 C     31  25  24     2.617790718600    17.22293711   192.84575144
 C     32  31  25     2.695086325686   122.23020309     0.71914539
 C     33  32  31     2.669119995899   118.55663135   359.95877062
 C     34  33  32     2.718936946448   120.45314351     1.98930136
 C     35  34  33     2.707030421444   119.73990576   356.09584211
 C     35  34  33     2.717170113988   121.40402645   179.16886415
 C     37  35  34     2.636312590056   120.00237103   178.99688773
 C     38  37  35     2.656440416951   120.96676776   359.60017276
 C     39  38  37     2.634491995367   120.58886938   359.66928837
 N     40  39  38     2.672610468327   119.82424637   185.09755002
 C     41  40  39     2.439539363353   123.33938046   295.77727164
 C     42  41  40     2.851290643130   119.20829455   176.96195431
 N     37  35  34     2.668275821624   120.36765955   351.93384349
 C     44  37  35     2.441365618887   123.59523059   127.63460548
 C     45  44  37     2.867122766476   124.63794686   353.15968937
 N     34  33  32     2.655018747300   120.64444143   176.41037283
 C     47  34  33     2.437354789157   124.72533738    76.80321384
 C     48  47  34     2.845498088792   119.57583868   183.74628889
 N     31  25  24     2.672992438728   137.05103741   184.48781243
 C     50  31  25     2.440507385853   123.27205898    64.12877348
 C     51  50  31     2.851236786449   119.11586257   183.28483388
 C     51  50  31     2.866651597187   124.69125671     4.86750999
 C     42  41  40     2.866704448488   124.55090466   355.26749734
 C     45  44  37     2.851157194476   119.20471129   175.03806389
 C     48  47  34     2.862876707760   123.68553595     2.58019137
 H     32  31  25     2.054384922067   118.82700943   181.68965684
 H     38  37  35     2.052629604800   119.32427325   178.08540874
 H     54  42  41     2.057814105564   110.47220083   225.78845017
 H     54  42  41     2.060339241120   110.51208653   107.32597002
 H     54  42  41     2.053361003287   111.29565391   347.02860166
 H     43  42  41     2.052039344016   111.10963474   358.70266268
 H     43  42  41     2.060536450120   110.58052920   119.33497713
 H     43  42  41     2.060068998372   110.75053787   237.75026863
 H     53  51  50     2.053548625658   111.35226140    15.43337972
 H     53  51  50     2.060286247885   110.51085951   255.24882123
 H     53  51  50     2.057619881622   110.47583901   136.75415592
 H     52  51  50     2.059989845184   110.70259318   122.04530896
 H     52  51  50     2.060666015731   110.62101959   240.44422706
 H     52  51  50     2.052106752105   111.11865595     1.13954258
 H     49  48  47     2.052022098609   111.12359262   353.12133045
 H     49  48  47     2.060207744652   109.97793410   113.21630533
 H     49  48  47     2.059646273832   110.99977746   231.70793597
 H     56  48  47     2.060263227060   109.85137392   255.12511812
 H     56  48  47     2.054306490831   111.13335334    14.84284218
 H     56  48  47     2.057622871111   110.93897817   136.37859984
 H     55  45  44     2.060282013957   110.76413408   121.24501018
 H     55  45  44     2.060455243970   110.58047537   239.60791163
 H     55  45  44     2.051989212317   111.12737078     0.33588742
 H     46  45  44     2.060295602986   110.63765764   106.99345514
 H     46  45  44     2.058032789937   110.35606048   225.42983345
 H     46  45  44     2.053428592239   111.33306291   346.60922704
 H     10   8   7     2.052937958556   121.24010091   180.10498678
 H     39  38  37     2.052604929877   119.84465627   180.24486974

---------------------
BASIS SET INFORMATION
---------------------
There are 4 groups of distinct atoms

 Group   1 Type C   : 11s6p2d1f contracted to 5s3p2d1f pattern {62111/411/11/1}
 Group   2 Type N   : 11s6p2d1f contracted to 5s3p2d1f pattern {62111/411/11/1}
 Group   3 Type H   : 5s1p contracted to 3s1p pattern {311/1}
 Group   4 Type S   : 14s9p3d1f contracted to 5s5p2d1f pattern {73211/51111/21/1}

Atom   0C    basis set group =>   1
Atom   1C    basis set group =>   1
Atom   2C    basis set group =>   1
Atom   3C    basis set group =>   1
Atom   4C    basis set group =>   1
Atom   5C    basis set group =>   1
Atom   6C    basis set group =>   1
Atom   7C    basis set group =>   1
Atom   8N    basis set group =>   2
Atom   9C    basis set group =>   1
Atom  10C    basis set group =>   1
Atom  11C    basis set group =>   1
Atom  12C    basis set group =>   1
Atom  13H    basis set group =>   3
Atom  14H    basis set group =>   3
Atom  15H    basis set group =>   3
Atom  16H    basis set group =>   3
Atom  17H    basis set group =>   3
Atom  18H    basis set group =>   3
Atom  19H    basis set group =>   3
Atom  20S    basis set group =>   4
Atom  21C    basis set group =>   1
Atom  22N    basis set group =>   2
Atom  23N    basis set group =>   2
Atom  24C    basis set group =>   1
Atom  25C    basis set group =>   1
Atom  26N    basis set group =>   2
Atom  27N    basis set group =>   2
Atom  28C    basis set group =>   1
Atom  29S    basis set group =>   4
Atom  30C    basis set group =>   1
Atom  31C    basis set group =>   1
Atom  32C    basis set group =>   1
Atom  33C    basis set group =>   1
Atom  34C    basis set group =>   1
Atom  35C    basis set group =>   1
Atom  36C    basis set group =>   1
Atom  37C    basis set group =>   1
Atom  38C    basis set group =>   1
Atom  39C    basis set group =>   1
Atom  40N    basis set group =>   2
Atom  41C    basis set group =>   1
Atom  42C    basis set group =>   1
Atom  43N    basis set group =>   2
Atom  44C    basis set group =>   1
Atom  45C    basis set group =>   1
Atom  46N    basis set group =>   2
Atom  47C    basis set group =>   1
Atom  48C    basis set group =>   1
Atom  49N    basis set group =>   2
Atom  50C    basis set group =>   1
Atom  51C    basis set group =>   1
Atom  52C    basis set group =>   1
Atom  53C    basis set group =>   1
Atom  54C    basis set group =>   1
Atom  55C    basis set group =>   1
Atom  56H    basis set group =>   3
Atom  57H    basis set group =>   3
Atom  58H    basis set group =>   3
Atom  59H    basis set group =>   3
Atom  60H    basis set group =>   3
Atom  61H    basis set group =>   3
Atom  62H    basis set group =>   3
Atom  63H    basis set group =>   3
Atom  64H    basis set group =>   3
Atom  65H    basis set group =>   3
Atom  66H    basis set group =>   3
Atom  67H    basis set group =>   3
Atom  68H    basis set group =>   3
Atom  69H    basis set group =>   3
Atom  70H    basis set group =>   3
Atom  71H    basis set group =>   3
Atom  72H    basis set group =>   3
Atom  73H    basis set group =>   3
Atom  74H    basis set group =>   3
Atom  75H    basis set group =>   3
Atom  76H    basis set group =>   3
Atom  77H    basis set group =>   3
Atom  78H    basis set group =>   3
Atom  79H    basis set group =>   3
Atom  80H    basis set group =>   3
Atom  81H    basis set group =>   3
Atom  82H    basis set group =>   3
Atom  83H    basis set group =>   3
-------------------------------
AUXILIARY BASIS SET INFORMATION
-------------------------------
There are 4 groups of distinct atoms

 Group   1 Type C   : 12s5p4d2f1g contracted to 6s4p3d1f1g pattern {711111/2111/211/2/1}
 Group   2 Type N   : 12s5p4d2f1g contracted to 6s4p3d1f1g pattern {711111/2111/211/2/1}
 Group   3 Type H   : 5s2p1d contracted to 3s1p1d pattern {311/2/1}
 Group   4 Type S   : 14s5p5d2f1g contracted to 8s4p3d1f1g pattern {71111111/2111/311/2/1}

Atom   0C    basis set group =>   1
Atom   1C    basis set group =>   1
Atom   2C    basis set group =>   1
Atom   3C    basis set group =>   1
Atom   4C    basis set group =>   1
Atom   5C    basis set group =>   1
Atom   6C    basis set group =>   1
Atom   7C    basis set group =>   1
Atom   8N    basis set group =>   2
Atom   9C    basis set group =>   1
Atom  10C    basis set group =>   1
Atom  11C    basis set group =>   1
Atom  12C    basis set group =>   1
Atom  13H    basis set group =>   3
Atom  14H    basis set group =>   3
Atom  15H    basis set group =>   3
Atom  16H    basis set group =>   3
Atom  17H    basis set group =>   3
Atom  18H    basis set group =>   3
Atom  19H    basis set group =>   3
Atom  20S    basis set group =>   4
Atom  21C    basis set group =>   1
Atom  22N    basis set group =>   2
Atom  23N    basis set group =>   2
Atom  24C    basis set group =>   1
Atom  25C    basis set group =>   1
Atom  26N    basis set group =>   2
Atom  27N    basis set group =>   2
Atom  28C    basis set group =>   1
Atom  29S    basis set group =>   4
Atom  30C    basis set group =>   1
Atom  31C    basis set group =>   1
Atom  32C    basis set group =>   1
Atom  33C    basis set group =>   1
Atom  34C    basis set group =>   1
Atom  35C    basis set group =>   1
Atom  36C    basis set group =>   1
Atom  37C    basis set group =>   1
Atom  38C    basis set group =>   1
Atom  39C    basis set group =>   1
Atom  40N    basis set group =>   2
Atom  41C    basis set group =>   1
Atom  42C    basis set group =>   1
Atom  43N    basis set group =>   2
Atom  44C    basis set group =>   1
Atom  45C    basis set group =>   1
Atom  46N    basis set group =>   2
Atom  47C    basis set group =>   1
Atom  48C    basis set group =>   1
Atom  49N    basis set group =>   2
Atom  50C    basis set group =>   1
Atom  51C    basis set group =>   1
Atom  52C    basis set group =>   1
Atom  53C    basis set group =>   1
Atom  54C    basis set group =>   1
Atom  55C    basis set group =>   1
Atom  56H    basis set group =>   3
Atom  57H    basis set group =>   3
Atom  58H    basis set group =>   3
Atom  59H    basis set group =>   3
Atom  60H    basis set group =>   3
Atom  61H    basis set group =>   3
Atom  62H    basis set group =>   3
Atom  63H    basis set group =>   3
Atom  64H    basis set group =>   3
Atom  65H    basis set group =>   3
Atom  66H    basis set group =>   3
Atom  67H    basis set group =>   3
Atom  68H    basis set group =>   3
Atom  69H    basis set group =>   3
Atom  70H    basis set group =>   3
Atom  71H    basis set group =>   3
Atom  72H    basis set group =>   3
Atom  73H    basis set group =>   3
Atom  74H    basis set group =>   3
Atom  75H    basis set group =>   3
Atom  76H    basis set group =>   3
Atom  77H    basis set group =>   3
Atom  78H    basis set group =>   3
Atom  79H    basis set group =>   3
Atom  80H    basis set group =>   3
Atom  81H    basis set group =>   3
Atom  82H    basis set group =>   3
Atom  83H    basis set group =>   3
-------------------------
ECP PARAMETER INFORMATION
-------------------------



--------------------------------------------------------------------------
[[5252,1],3]: A high-performance Open MPI point-to-point messaging module
was unable to find any relevant network interfaces:

Module: OpenFabrics (openib)
  Host: cx1-136-6-1

Another transport will be used instead, although this may result in
lower performance.
--------------------------------------------------------------------------


           ************************************************************
           *        Program running with 24 parallel MPI-processes    *
           *              working on a common directory               *
           ************************************************************
------------------------------------------------------------------------------
                           ORCA GTO INTEGRAL CALCULATION
                           -- RI-GTO INTEGRALS CHOSEN --
------------------------------------------------------------------------------

                         BASIS SET STATISTICS AND STARTUP INFO

Gaussian basis set:
 # of primitive gaussian shells          ... 1204
 # of primitive gaussian functions       ... 2568
 # of contracted shells                  ...  683
 # of contracted basis functions         ... 1741
 Highest angular momentum                ...    3
 Maximum contraction depth               ...    7
Auxiliary gaussian basis set:
 # of primitive gaussian shells          ... 1462
 # of primitive gaussian functions       ... 4004
 # of contracted shells                  ...  914
 # of contracted aux-basis functions     ... 2790
 Highest angular momentum                ...    4
 Maximum contraction depth               ...    7
Ratio of auxiliary to basis functions    ...  1.60
Integral package used                  ... LIBINT
 One Electron integrals                  
   ECP integrals                         ... done
 Ordering auxiliary basis shells         ... done
 Integral threshhold             Thresh  ...  2.500e-11
 Primitive cut-off               TCut    ...  2.500e-12
 Pre-screening matrix                    ... done
 Shell pair data                         ... 
 Ordering of the shell pairs             ... done (   0.034 sec) 96555 of 233586 pairs
 Determination of significant pairs      ... done (   0.001 sec)
 Creation of shell pair data             ... done (   0.025 sec)
 Storage of shell pair data              ... done (   0.235 sec)
 Shell pair data done in (   0.295 sec)
 Computing two index integrals           ... done
 Cholesky decomposition of the V-matrix  ... done


Timings:
 Total evaluation time                   ...  13.445 sec (  0.224 min)
 One electron matrix time                ...   4.791 sec (  0.080 min) = 35.6%
 Schwartz matrix evaluation time         ...   4.589 sec (  0.076 min) = 34.1%
 Two index repulsion integral time       ...   2.299 sec (  0.038 min) = 17.1%
 Cholesky decomposition of V             ...   1.431 sec (  0.024 min) = 10.6%
 Three index repulsion integral time     ...   0.000 sec (  0.000 min) =  0.0%

--------------------------------------------------------------------------
[[5461,1],6]: A high-performance Open MPI point-to-point messaging module
was unable to find any relevant network interfaces:

Module: OpenFabrics (openib)
  Host: cx1-136-6-1

Another transport will be used instead, although this may result in
lower performance.
--------------------------------------------------------------------------


           ************************************************************
           *        Program running with 24 parallel MPI-processes    *
           *              working on a common directory               *
           ************************************************************
-------------------------------------------------------------------------------
                                 ORCA SCF
-------------------------------------------------------------------------------

------------
SCF SETTINGS
------------
Hamiltonian:
 Density Functional     Method          .... DFT(GTOs)
 Exchange Functional    Exchange        .... WB97X-D3
 Correlation Functional Correlation     .... WB97X-D3
 Gradients option       PostSCFGGA      .... off
 Hybrid DFT is turned on
   Fraction HF Exchange ScalHFX         ....  0.195728
   Scaling of DF-GGA-X  ScalDFX         ....  0.000000
   Scaling of DF-GGA-C  ScalDFC         ....  1.000000
   Scaling of DF-LDA-C  ScalLDAC        ....  1.000000
   Perturbative correction              ....  0.000000
 Long-range corrected/Screened/Range-Separated Hybrid DFT is turned on
   Amount of maximum screened exact exchange              ....  0.804272
   Range separation parameter mu (erf(mu*r12)/r12)        ....  0.250000
 RI-approximation to the Coulomb term is turned on
   Number of auxiliary basis functions  .... 2790
   RIJ-COSX (HFX calculated with COS-X)).... on


General Settings:
 Integral files         IntName         .... total
 Hartree-Fock type      HFTyp           .... RHF
 Total Charge           Charge          ....    0
 Multiplicity           Mult            ....    1
 Number of Electrons    NEL             ....  358
 Basis Dimension        Dim             .... 1741
 Nuclear Repulsion      ENuc            ....   6069.7577265719 Eh

Convergence Acceleration:
 DIIS                   CNVDIIS         .... on
   Start iteration      DIISMaxIt       ....    12
   Startup error        DIISStart       ....  0.200000
   # of expansion vecs  DIISMaxEq       ....     5
   Bias factor          DIISBfac        ....   1.050
   Max. coefficient     DIISMaxC        ....  10.000
 Newton-Raphson         CNVNR           .... off
 SOSCF                  CNVSOSCF        .... on
   Start iteration      SOSCFMaxIt      ....   150
   Startup grad/error   SOSCFStart      ....  0.003300
 Level Shifting         CNVShift        .... on
   Level shift para.    LevelShift      ....    0.2500
   Turn off err/grad.   ShiftErr        ....    0.0010
 Zerner damping         CNVZerner       .... off
 Static damping         CNVDamp         .... on
   Fraction old density DampFac         ....    0.7000
   Max. Damping (<1)    DampMax         ....    0.9800
   Min. Damping (>=0)   DampMin         ....    0.0000
   Turn off err/grad.   DampErr         ....    0.1000
 Fernandez-Rico         CNVRico         .... off

SCF Procedure:
 Maximum # iterations   MaxIter         ....   125
 SCF integral mode      SCFMode         .... Direct
   Integral package                     .... LIBINT
 Reset frequeny         DirectResetFreq ....    20
 Integral Threshold     Thresh          ....  2.500e-11 Eh
 Primitive CutOff       TCut            ....  2.500e-12 Eh

Convergence Tolerance:
 Convergence Check Mode ConvCheckMode   .... Total+1el-Energy
 Convergence forced     ConvForced      .... 1
 Energy Change          TolE            ....  1.000e-08 Eh
 1-El. energy change                    ....  1.000e-05 Eh
 Orbital Gradient       TolG            ....  1.000e-05
 Orbital Rotation angle TolX            ....  1.000e-05
 DIIS Error             TolErr          ....  5.000e-07


Diagonalization of the overlap matrix:
Smallest eigenvalue                        ... 2.647e-06
Time for diagonalization                   ...    1.021 sec
Threshold for overlap eigenvalues          ... 1.000e-08
Number of eigenvalues below threshold      ... 0
Time for construction of square roots      ...    1.209 sec
Total time needed                          ...    2.251 sec

-------------------
DFT GRID GENERATION
-------------------

General Integration Accuracy     IntAcc      ...  5.010
Radial Grid Type                 RadialGrid  ... Gauss-Chebyshev
Angular Grid (max. acc.)         AngularGrid ... Lebedev-434
Angular grid pruning method      GridPruning ... 3 (G Style)
Weight generation scheme         WeightScheme... Becke
Basis function cutoff            BFCut       ...    1.0000e-11
Integration weight cutoff        WCut        ...    1.0000e-14
Grids for H and He will be reduced by one unit

# of grid points (after initial pruning)     ... 759534 (   0.0 sec)
# of grid points (after weights+screening)   ... 648119 (   4.8 sec)
nearest neighbour list constructed           ...    0.0 sec
Grid point re-assignment to atoms done       ...    0.3 sec
Grid point division into batches done        ...    6.9 sec
Reduced shell lists constructed in    8.2 sec

Total number of grid points                  ...   648119
Total number of batches                      ...    10164
Average number of points per batch           ...       63
Average number of grid points per atom       ...     7716
Average number of shells per batch           ...   137.05 (20.07%)
Average number of basis functions per batch  ...   364.43 (20.93%)
Average number of large shells per batch     ...    97.35 (71.03%)
Average number of large basis fcns per batch ...   256.77 (70.46%)
Maximum spatial batch extension              ...  10.27, 15.02, 13.82 au
Average spatial batch extension              ...   0.05,  0.06,  0.06 au

Time for grid setup =   15.181 sec

------------------------------
INITIAL GUESS: MODEL POTENTIAL
------------------------------
Loading Hartree-Fock densities                     ... done
Calculating cut-offs                               ... done
Setting up the integral package                    ... done
Initializing the effective Hamiltonian             ... done
Starting the Coulomb interaction                   ... done (   1.6 sec)
Reading the grid                                   ... done
Mapping shells                                     ... done
Starting the XC term evaluation                    ... done (   4.5 sec)
  promolecular density results
     # of electrons  =    357.983447843
     EX              =   -313.266564039
     EC              =    -12.211274858
     EX+EC           =   -325.477838897
Transforming the Hamiltonian                       ... done (   0.6 sec)
Diagonalizing the Hamiltonian                      ... done (   1.0 sec)
Back transforming the eigenvectors                 ... done (   0.4 sec)
Now organizing SCF variables                       ... done
                      ------------------
                      INITIAL GUESS DONE (  23.9 sec)
                      ------------------
--------------------
COSX GRID GENERATION
--------------------

General Integration Accuracy     IntAcc      ...  3.340
Radial Grid Type                 RadialGrid  ... Gauss-Chebyshev
Angular Grid (max. acc.)         AngularGrid ... Lebedev-50
Angular grid pruning method      GridPruning ... 3 (G Style)
Weight generation scheme         WeightScheme... Becke
Basis function cutoff            BFCut       ...    1.0000e-11
Integration weight cutoff        WCut        ...    1.0000e-14
Grids for H and He will be reduced by one unit

# of grid points (after initial pruning)     ...  39746 (   0.0 sec)
# of grid points (after weights+screening)   ...  35413 (   0.3 sec)
nearest neighbour list constructed           ...    0.0 sec
Grid point re-assignment to atoms done       ...    0.0 sec
Grid point division into batches done        ...    0.0 sec
Reduced shell lists constructed in    0.1 sec

Total number of grid points                  ...    35413
Total number of batches                      ...      592
Average number of points per batch           ...       59
Average number of grid points per atom       ...      422
Average number of shells per batch           ...   153.81 (22.52%)
Average number of basis functions per batch  ...   414.88 (23.83%)
Average number of large shells per batch     ...   111.19 (72.29%)
Average number of large basis fcns per batch ...   298.73 (72.00%)
Maximum spatial batch extension              ...   3.99, 15.40, 15.40 au
Average spatial batch extension              ...   0.10,  0.20,  0.20 au

Overlap Fitting                  UseSFitting ... on
Constructing numerical overlap ... done (      0.3 sec)
Inverting numerical overlap    ... done (      0.4 sec)
Obtaining analytic overlap     ... done (      0.0 sec)
Final contraction and storage  ... done (      1.7 sec)


General Integration Accuracy     IntAcc      ...  3.670
Radial Grid Type                 RadialGrid  ... Gauss-Chebyshev
Angular Grid (max. acc.)         AngularGrid ... Lebedev-50
Angular grid pruning method      GridPruning ... 3 (G Style)
Weight generation scheme         WeightScheme... Becke
Basis function cutoff            BFCut       ...    1.0000e-11
Integration weight cutoff        WCut        ...    1.0000e-14
Grids for H and He will be reduced by one unit

# of grid points (after initial pruning)     ...  50182 (   0.0 sec)
# of grid points (after weights+screening)   ...  44562 (   0.4 sec)
nearest neighbour list constructed           ...    0.0 sec
Grid point re-assignment to atoms done       ...    0.0 sec
Grid point division into batches done        ...    0.0 sec
Reduced shell lists constructed in    0.1 sec

Total number of grid points                  ...    44562
Total number of batches                      ...      730
Average number of points per batch           ...       61
Average number of grid points per atom       ...      530
Average number of shells per batch           ...   151.88 (22.24%)
Average number of basis functions per batch  ...   408.62 (23.47%)
Average number of large shells per batch     ...   110.44 (72.72%)
Average number of large basis fcns per batch ...   296.12 (72.47%)
Maximum spatial batch extension              ...  10.36, 15.20, 14.83 au
Average spatial batch extension              ...   0.10,  0.17,  0.17 au

Overlap Fitting                  UseSFitting ... on
Constructing numerical overlap ... done (      0.3 sec)
Inverting numerical overlap    ... done (      0.4 sec)
Obtaining analytic overlap     ... done (      0.0 sec)
Final contraction and storage  ... done (      1.7 sec)


General Integration Accuracy     IntAcc      ...  4.010
Radial Grid Type                 RadialGrid  ... Gauss-Chebyshev
Angular Grid (max. acc.)         AngularGrid ... Lebedev-110
Angular grid pruning method      GridPruning ... 3 (G Style)
Weight generation scheme         WeightScheme... Becke
Basis function cutoff            BFCut       ...    1.0000e-11
Integration weight cutoff        WCut        ...    1.0000e-14
Grids for H and He will be reduced by one unit

# of grid points (after initial pruning)     ...  95640 (   0.0 sec)
# of grid points (after weights+screening)   ...  84321 (   0.8 sec)
nearest neighbour list constructed           ...    0.0 sec
Grid point re-assignment to atoms done       ...    0.0 sec
Grid point division into batches done        ...    0.1 sec
Reduced shell lists constructed in    0.4 sec

Total number of grid points                  ...    84321
Total number of batches                      ...     1362
Average number of points per batch           ...       61
Average number of grid points per atom       ...     1004
Average number of shells per batch           ...   150.57 (22.05%)
Average number of basis functions per batch  ...   405.60 (23.30%)
Average number of large shells per batch     ...   108.64 (72.15%)
Average number of large basis fcns per batch ...   290.71 (71.67%)
Maximum spatial batch extension              ...  10.48, 21.14, 22.48 au
Average spatial batch extension              ...   0.09,  0.15,  0.15 au

Overlap Fitting                  UseSFitting ... on
Constructing numerical overlap ... done (      0.5 sec)
Inverting numerical overlap    ... done (      0.4 sec)
Obtaining analytic overlap     ... done (      0.0 sec)
Final contraction and storage  ... done (      1.7 sec)

Time for X-Grid setup             =   10.838 sec
--------------
SCF ITERATIONS
--------------
ITER       Energy         Delta-E        Max-DP      RMS-DP      [F,P]     Damp
               ***  Starting incremental Fock matrix formation  ***
  0  -2757.1478882848   0.000000000000 0.09310994  0.00058909  0.1726735 0.7000
  1  -2757.6252612410  -0.477372956175 0.09832116  0.00051710  0.1056839 0.7000
                               ***Turning on DIIS***
  2  -2757.8640262772  -0.238765036201 0.17472826  0.00105907  0.0573327 0.0000
  3  -2758.2514132203  -0.387386943155 0.08107967  0.00038775  0.0395016 0.0000
  4  -2758.3132332220  -0.061820001657 0.01534867  0.00010747  0.0079958 0.0000
  5  -2758.3159687626  -0.002735540632 0.00676574  0.00005342  0.0044907 0.0000
                      *** Initiating the SOSCF procedure ***
                           *** Shutting down DIIS ***
                      *** Re-Reading the Fockian *** 
                      *** Removing any level shift *** 
ITER      Energy       Delta-E        Grad      Rot      Max-DP    RMS-DP
  6  -2758.31657762  -0.0006088567  0.002234  0.002234  0.002674  0.000029
               *** Restarting incremental Fock matrix formation ***
  7  -2758.31676858  -0.0001909607  0.001549  0.004333  0.010594  0.000107
  8  -2758.31684421  -0.0000756307  0.000440  0.004217  0.008877  0.000074
  9  -2758.31686188  -0.0000176701  0.000278  0.000945  0.007182  0.000061
 10  -2758.31687227  -0.0000103849  0.000074  0.000315  0.001198  0.000012
 11  -2758.31687264  -0.0000003787  0.000050  0.000109  0.000971  0.000008
 12  -2758.31687321  -0.0000005611  0.000017  0.000081  0.000282  0.000002
 13  -2758.31687320   0.0000000079  0.000012  0.000030  0.000317  0.000002
 14  -2758.31687326  -0.0000000622  0.000005  0.000027  0.000666  0.000002
                  ***Gradient check signals convergence***
              ***Rediagonalizing the Fockian in SOSCF/NRSCF***

               *****************************************************
               *                     SUCCESS                       *
               *           SCF CONVERGED AFTER  15 CYCLES          *
               *****************************************************

Old exchange energy                            =   -100.729337309 Eh
New exchange energy                            =   -100.729967810 Eh
Exchange energy change after final integration =     -0.000630501 Eh
Total energy after final integration           =  -2758.317503856 Eh
Final COS-X integration done in                =   118.301 sec

----------------
TOTAL SCF ENERGY
----------------

Total Energy       :        -2758.31750386 Eh          -75057.63514 eV

Components:
Nuclear Repulsion  :         6069.75772657 Eh          165166.50464 eV
Electronic Energy  :        -8828.07523043 Eh         -240224.13978 eV
One Electron Energy:       -15846.24522074 Eh         -431198.25415 eV
Two Electron Energy:         7018.16999031 Eh          190974.11437 eV

Virial components:
Potential Energy   :        -5504.56474239 Eh         -149786.82166 eV
Kinetic Energy     :         2746.24723853 Eh           74729.18652 eV
Virial Ratio       :            2.00439519


DFT components:
N(Alpha)           :      179.000107779385 electrons
N(Beta)            :      179.000107779385 electrons
N(Total)           :      358.000215558770 electrons
E(XC)              :     -231.720536298687 Eh       

---------------
SCF CONVERGENCE
---------------

  Last Energy change         ...   -9.5770e-08  Tolerance :   1.0000e-08
  Last MAX-Density change    ...    2.1093e-14  Tolerance :   1.0000e-07
  Last RMS-Density change    ...    8.6734e-17  Tolerance :   5.0000e-09
  Last Orbital Gradient      ...    2.3645e-06  Tolerance :   1.0000e-05
  Last Orbital Rotation      ...    1.3996e-05  Tolerance :   1.0000e-05

             **** THE GBW FILE WAS UPDATED (total.gbw) ****
             **** DENSITY FILE WAS UPDATED (total.scfp.tmp) ****
             **** ENERGY FILE WAS UPDATED (total.en.tmp) ****
----------------
ORBITAL ENERGIES
----------------

  NO   OCC          E(Eh)            E(eV) 
   0   2.0000     -89.001632     -2421.8575 
   1   2.0000     -88.996744     -2421.7245 
   2   2.0000     -14.468679      -393.7128 
   3   2.0000     -14.466099      -393.6426 
   4   2.0000     -14.464136      -393.5892 
   5   2.0000     -14.459111      -393.4524 
   6   2.0000     -14.449483      -393.1904 
   7   2.0000     -14.412971      -392.1969 
   8   2.0000     -14.411618      -392.1601 
   9   2.0000     -14.411344      -392.1526 
  10   2.0000     -14.407812      -392.0565 
  11   2.0000     -10.373093      -282.2662 
  12   2.0000     -10.369320      -282.1636 
  13   2.0000     -10.367893      -282.1247 
  14   2.0000     -10.365102      -282.0488 
  15   2.0000     -10.334699      -281.2214 
  16   2.0000     -10.334648      -281.2201 
  17   2.0000     -10.334293      -281.2104 
  18   2.0000     -10.332455      -281.1604 
  19   2.0000     -10.331438      -281.1327 
  20   2.0000     -10.330259      -281.1006 
  21   2.0000     -10.323985      -280.9299 
  22   2.0000     -10.317940      -280.7654 
  23   2.0000     -10.316939      -280.7382 
  24   2.0000     -10.314992      -280.6852 
  25   2.0000     -10.314670      -280.6764 
  26   2.0000     -10.302486      -280.3449 
  27   2.0000     -10.301080      -280.3066 
  28   2.0000     -10.300340      -280.2865 
  29   2.0000     -10.299925      -280.2752 
  30   2.0000     -10.296995      -280.1955 
  31   2.0000     -10.293829      -280.1093 
  32   2.0000     -10.292120      -280.0628 
  33   2.0000     -10.286746      -279.9166 
  34   2.0000     -10.283364      -279.8246 
  35   2.0000     -10.282512      -279.8014 
  36   2.0000     -10.281570      -279.7757 
  37   2.0000     -10.280198      -279.7384 
  38   2.0000     -10.278575      -279.6943 
  39   2.0000     -10.277519      -279.6655 
  40   2.0000     -10.277243      -279.6580 
  41   2.0000     -10.276051      -279.6256 
  42   2.0000     -10.275118      -279.6002 
  43   2.0000     -10.274668      -279.5879 
  44   2.0000     -10.273897      -279.5669 
  45   2.0000     -10.273869      -279.5662 
  46   2.0000     -10.271021      -279.4887 
  47   2.0000     -10.268824      -279.4289 
  48   2.0000     -10.266042      -279.3532 
  49   2.0000      -8.097885      -220.3547 
  50   2.0000      -8.093077      -220.2238 
  51   2.0000      -6.050961      -164.6550 
  52   2.0000      -6.047069      -164.5491 
  53   2.0000      -6.046124      -164.5234 
  54   2.0000      -6.044956      -164.4916 
  55   2.0000      -6.042353      -164.4208 
  56   2.0000      -6.040092      -164.3593 
  57   2.0000      -1.148439       -31.2506 
  58   2.0000      -1.138923       -30.9917 
  59   2.0000      -1.105772       -30.0896 
  60   2.0000      -1.059691       -28.8357 
  61   2.0000      -1.050534       -28.5865 
  62   2.0000      -1.037285       -28.2260 
  63   2.0000      -1.033524       -28.1236 
  64   2.0000      -0.989599       -26.9283 
  65   2.0000      -0.978026       -26.6134 
  66   2.0000      -0.970953       -26.4210 
  67   2.0000      -0.961656       -26.1680 
  68   2.0000      -0.950686       -25.8695 
  69   2.0000      -0.934094       -25.4180 
  70   2.0000      -0.918237       -24.9865 
  71   2.0000      -0.908693       -24.7268 
  72   2.0000      -0.906781       -24.6748 
  73   2.0000      -0.898558       -24.4510 
  74   2.0000      -0.885788       -24.1035 
  75   2.0000      -0.873478       -23.7685 
  76   2.0000      -0.872190       -23.7335 
  77   2.0000      -0.864996       -23.5377 
  78   2.0000      -0.860468       -23.4145 
  79   2.0000      -0.844470       -22.9792 
  80   2.0000      -0.839013       -22.8307 
  81   2.0000      -0.833235       -22.6735 
  82   2.0000      -0.822536       -22.3823 
  83   2.0000      -0.820604       -22.3298 
  84   2.0000      -0.818338       -22.2681 
  85   2.0000      -0.813932       -22.1482 
  86   2.0000      -0.801600       -21.8127 
  87   2.0000      -0.779790       -21.2192 
  88   2.0000      -0.766764       -20.8647 
  89   2.0000      -0.755412       -20.5558 
  90   2.0000      -0.738855       -20.1053 
  91   2.0000      -0.725961       -19.7544 
  92   2.0000      -0.724723       -19.7207 
  93   2.0000      -0.720792       -19.6137 
  94   2.0000      -0.711432       -19.3591 
  95   2.0000      -0.697373       -18.9765 
  96   2.0000      -0.677835       -18.4448 
  97   2.0000      -0.666427       -18.1344 
  98   2.0000      -0.659566       -17.9477 
  99   2.0000      -0.655244       -17.8301 
 100   2.0000      -0.649886       -17.6843 
 101   2.0000      -0.639276       -17.3956 
 102   2.0000      -0.622434       -16.9373 
 103   2.0000      -0.614725       -16.7275 
 104   2.0000      -0.607637       -16.5346 
 105   2.0000      -0.605249       -16.4697 
 106   2.0000      -0.595872       -16.2145 
 107   2.0000      -0.587284       -15.9808 
 108   2.0000      -0.583656       -15.8821 
 109   2.0000      -0.581587       -15.8258 
 110   2.0000      -0.574021       -15.6199 
 111   2.0000      -0.567264       -15.4361 
 112   2.0000      -0.566754       -15.4222 
 113   2.0000      -0.563663       -15.3380 
 114   2.0000      -0.560121       -15.2417 
 115   2.0000      -0.559499       -15.2247 
 116   2.0000      -0.554581       -15.0909 
 117   2.0000      -0.554109       -15.0781 
 118   2.0000      -0.551425       -15.0050 
 119   2.0000      -0.547765       -14.9054 
 120   2.0000      -0.545346       -14.8396 
 121   2.0000      -0.542741       -14.7687 
 122   2.0000      -0.540546       -14.7090 
 123   2.0000      -0.537169       -14.6171 
 124   2.0000      -0.535814       -14.5802 
 125   2.0000      -0.534381       -14.5413 
 126   2.0000      -0.529956       -14.4208 
 127   2.0000      -0.528286       -14.3754 
 128   2.0000      -0.526322       -14.3219 
 129   2.0000      -0.523384       -14.2420 
 130   2.0000      -0.521418       -14.1885 
 131   2.0000      -0.516207       -14.0467 
 132   2.0000      -0.514742       -14.0068 
 133   2.0000      -0.505993       -13.7688 
 134   2.0000      -0.500112       -13.6087 
 135   2.0000      -0.499324       -13.5873 
 136   2.0000      -0.498439       -13.5632 
 137   2.0000      -0.495259       -13.4767 
 138   2.0000      -0.491143       -13.3647 
 139   2.0000      -0.489666       -13.3245 
 140   2.0000      -0.485503       -13.2112 
 141   2.0000      -0.484738       -13.1904 
 142   2.0000      -0.478029       -13.0078 
 143   2.0000      -0.474805       -12.9201 
 144   2.0000      -0.471713       -12.8360 
 145   2.0000      -0.469295       -12.7702 
 146   2.0000      -0.466144       -12.6844 
 147   2.0000      -0.466075       -12.6825 
 148   2.0000      -0.465438       -12.6652 
 149   2.0000      -0.461926       -12.5696 
 150   2.0000      -0.457675       -12.4540 
 151   2.0000      -0.453040       -12.3279 
 152   2.0000      -0.449239       -12.2244 
 153   2.0000      -0.443709       -12.0739 
 154   2.0000      -0.439281       -11.9535 
 155   2.0000      -0.432350       -11.7649 
 156   2.0000      -0.420467       -11.4415 
 157   2.0000      -0.416999       -11.3471 
 158   2.0000      -0.411902       -11.2084 
 159   2.0000      -0.406994       -11.0749 
 160   2.0000      -0.397685       -10.8216 
 161   2.0000      -0.395080       -10.7507 
 162   2.0000      -0.392573       -10.6825 
 163   2.0000      -0.389135       -10.5889 
 164   2.0000      -0.385408       -10.4875 
 165   2.0000      -0.379517       -10.3272 
 166   2.0000      -0.370643       -10.0857 
 167   2.0000      -0.363343        -9.8871 
 168   2.0000      -0.360608        -9.8126 
 169   2.0000      -0.357503        -9.7282 
 170   2.0000      -0.347633        -9.4596 
 171   2.0000      -0.336009        -9.1433 
 172   2.0000      -0.331230        -9.0132 
 173   2.0000      -0.324223        -8.8226 
 174   2.0000      -0.315529        -8.5860 
 175   2.0000      -0.302261        -8.2249 
 176   2.0000      -0.297550        -8.0968 
 177   2.0000      -0.287828        -7.8322 
 178   2.0000      -0.244244        -6.6462 
 179   0.0000      -0.027676        -0.7531 
 180   0.0000       0.006261         0.1704 
 181   0.0000       0.026999         0.7347 
 182   0.0000       0.037893         1.0311 
 183   0.0000       0.045047         1.2258 
 184   0.0000       0.052964         1.4412 
 185   0.0000       0.059813         1.6276 
 186   0.0000       0.072299         1.9674 
 187   0.0000       0.080127         2.1804 
 188   0.0000       0.086150         2.3443 
 189   0.0000       0.092571         2.5190 
 190   0.0000       0.093122         2.5340 
 191   0.0000       0.096658         2.6302 
 192   0.0000       0.098549         2.6816 
 193   0.0000       0.101518         2.7624 
 194   0.0000       0.107603         2.9280 
 195   0.0000       0.110607         3.0098 
 196   0.0000       0.114629         3.1192 
 197   0.0000       0.124250         3.3810 
 198   0.0000       0.125426         3.4130 
 199   0.0000       0.131803         3.5865 
 200   0.0000       0.133911         3.6439 
 201   0.0000       0.134567         3.6617 
 202   0.0000       0.138030         3.7560 
 203   0.0000       0.142154         3.8682 
 204   0.0000       0.142985         3.8908 
 205   0.0000       0.147849         4.0232 
 206   0.0000       0.148961         4.0534 
 207   0.0000       0.155039         4.2188 
 208   0.0000       0.159109         4.3296 
 209   0.0000       0.160591         4.3699 
 210   0.0000       0.166218         4.5230 
 211   0.0000       0.167877         4.5682 
 212   0.0000       0.168709         4.5908 
 213   0.0000       0.173331         4.7166 
 214   0.0000       0.175647         4.7796 
 215   0.0000       0.176252         4.7961 
 216   0.0000       0.180502         4.9117 
 217   0.0000       0.181285         4.9330 
 218   0.0000       0.182144         4.9564 
 219   0.0000       0.185781         5.0554 
 220   0.0000       0.188856         5.1390 
 221   0.0000       0.189581         5.1588 
 222   0.0000       0.193939         5.2773 
 223   0.0000       0.196335         5.3425 
 224   0.0000       0.200405         5.4533 
 225   0.0000       0.203724         5.5436 
 226   0.0000       0.205630         5.5955 
 227   0.0000       0.208259         5.6670 
 228   0.0000       0.213144         5.7999 
 229   0.0000       0.214631         5.8404 
 230   0.0000       0.215823         5.8728 
 231   0.0000       0.217924         5.9300 
 232   0.0000       0.219519         5.9734 
 233   0.0000       0.222728         6.0607 
 234   0.0000       0.226652         6.1675 
 235   0.0000       0.228432         6.2159 
 236   0.0000       0.228831         6.2268 
 237   0.0000       0.231468         6.2986 
 238   0.0000       0.231929         6.3111 
 239   0.0000       0.234689         6.3862 
 240   0.0000       0.236751         6.4423 
 241   0.0000       0.242411         6.5963 
 242   0.0000       0.245387         6.6773 
 243   0.0000       0.247136         6.7249 
 244   0.0000       0.247398         6.7321 
 245   0.0000       0.249065         6.7774 
 246   0.0000       0.251234         6.8364 
 247   0.0000       0.252884         6.8813 
 248   0.0000       0.255823         6.9613 
 249   0.0000       0.257229         6.9996 
 250   0.0000       0.258817         7.0428 
 251   0.0000       0.260738         7.0950 
 252   0.0000       0.261879         7.1261 
 253   0.0000       0.264774         7.2049 
 254   0.0000       0.265735         7.2310 
 255   0.0000       0.270325         7.3559 
 256   0.0000       0.272341         7.4108 
 257   0.0000       0.276618         7.5272 
 258   0.0000       0.279276         7.5995 
 259   0.0000       0.280141         7.6230 
 260   0.0000       0.284098         7.7307 
 261   0.0000       0.285800         7.7770 
 262   0.0000       0.288921         7.8619 
 263   0.0000       0.289608         7.8806 
 264   0.0000       0.291086         7.9209 
 265   0.0000       0.293910         7.9977 
 266   0.0000       0.295763         8.0481 
 267   0.0000       0.297589         8.0978 
 268   0.0000       0.299155         8.1404 
 269   0.0000       0.301010         8.1909 
 270   0.0000       0.302093         8.2204 
 271   0.0000       0.302655         8.2357 
 272   0.0000       0.305360         8.3093 
 273   0.0000       0.305985         8.3263 
 274   0.0000       0.308368         8.3911 
 275   0.0000       0.312629         8.5071 
 276   0.0000       0.314234         8.5508 
 277   0.0000       0.315184         8.5766 
 278   0.0000       0.317176         8.6308 
 279   0.0000       0.323333         8.7983 
 280   0.0000       0.324110         8.8195 
 281   0.0000       0.328804         8.9472 
 282   0.0000       0.330377         8.9900 
 283   0.0000       0.335269         9.1231 
 284   0.0000       0.336734         9.1630 
 285   0.0000       0.338402         9.2084 
 286   0.0000       0.344066         9.3625 
 287   0.0000       0.347355         9.4520 
 288   0.0000       0.349738         9.5169 
 289   0.0000       0.351478         9.5642 
 290   0.0000       0.353078         9.6078 
 291   0.0000       0.354646         9.6504 
 292   0.0000       0.356287         9.6951 
 293   0.0000       0.360619         9.8129 
 294   0.0000       0.362774         9.8716 
 295   0.0000       0.364404         9.9159 
 296   0.0000       0.367038         9.9876 
 297   0.0000       0.368935        10.0392 
 298   0.0000       0.371915        10.1203 
 299   0.0000       0.373500        10.1634 
 300   0.0000       0.375589        10.2203 
 301   0.0000       0.377542        10.2735 
 302   0.0000       0.378892        10.3102 
 303   0.0000       0.382455        10.4071 
 304   0.0000       0.382656        10.4126 
 305   0.0000       0.384276        10.4567 
 306   0.0000       0.388651        10.5757 
 307   0.0000       0.388943        10.5837 
 308   0.0000       0.391486        10.6529 
 309   0.0000       0.393937        10.7196 
 310   0.0000       0.395058        10.7501 
 311   0.0000       0.398114        10.8332 
 312   0.0000       0.399388        10.8679 
 313   0.0000       0.403886        10.9903 
 314   0.0000       0.406772        11.0688 
 315   0.0000       0.407474        11.0879 
 316   0.0000       0.410276        11.1642 
 317   0.0000       0.412249        11.2179 
 318   0.0000       0.417003        11.3472 
 319   0.0000       0.417861        11.3706 
 320   0.0000       0.418860        11.3978 
 321   0.0000       0.421514        11.4700 
 322   0.0000       0.423752        11.5309 
 323   0.0000       0.426115        11.5952 
 324   0.0000       0.427958        11.6453 
 325   0.0000       0.430783        11.7222 
 326   0.0000       0.435189        11.8421 
 327   0.0000       0.436518        11.8782 
 328   0.0000       0.439864        11.9693 
 329   0.0000       0.440283        11.9807 
 330   0.0000       0.441389        12.0108 
 331   0.0000       0.444488        12.0951 
 332   0.0000       0.445592        12.1252 
 333   0.0000       0.448131        12.1943 
 334   0.0000       0.451191        12.2775 
 335   0.0000       0.452297        12.3076 
 336   0.0000       0.453225        12.3329 
 337   0.0000       0.457600        12.4519 
 338   0.0000       0.458682        12.4814 
 339   0.0000       0.461862        12.5679 
 340   0.0000       0.463112        12.6019 
 341   0.0000       0.465208        12.6590 
 342   0.0000       0.467103        12.7105 
 343   0.0000       0.469015        12.7625 
 344   0.0000       0.470362        12.7992 
 345   0.0000       0.471741        12.8367 
 346   0.0000       0.473207        12.8766 
 347   0.0000       0.478184        13.0121 
 348   0.0000       0.480188        13.0666 
 349   0.0000       0.481631        13.1058 
 350   0.0000       0.483008        13.1433 
 351   0.0000       0.484093        13.1728 
 352   0.0000       0.486527        13.2391 
 353   0.0000       0.487507        13.2657 
 354   0.0000       0.491886        13.3849 
 355   0.0000       0.494174        13.4471 
 356   0.0000       0.496375        13.5071 
 357   0.0000       0.498116        13.5544 
 358   0.0000       0.500255        13.6126 
 359   0.0000       0.500945        13.6314 
 360   0.0000       0.501495        13.6464 
 361   0.0000       0.502519        13.6742 
 362   0.0000       0.505809        13.7638 
 363   0.0000       0.508111        13.8264 
 364   0.0000       0.509421        13.8621 
 365   0.0000       0.511678        13.9235 
 366   0.0000       0.512812        13.9543 
 367   0.0000       0.513902        13.9840 
 368   0.0000       0.518760        14.1162 
[...]
 334   9.396     132.0   0.032984   0.028966  43.780203  41.008670     0.13 ( 117-> 130)    0.03 ( 117-> 131)    0.02 ( 104-> 138)
 335   9.399     131.9   0.008264   0.008002  11.181849  11.233711     0.07 ( 118-> 175)    0.07 ( 117-> 131)    0.02 ( 118-> 174)
 336   9.402     131.9   0.006242   0.006483  -38.347764  -39.752701     0.05 ( 118-> 175)    0.03 ( 117-> 129)    0.03 ( 106-> 128)
 337   9.410     131.8   0.022528   0.021484  -45.218598  -45.954298     0.04 ( 118-> 175)    0.03 ( 117-> 131)    0.03 ( 115-> 154)
 338   9.413     131.7   0.008577   0.007547  10.721369  10.571988     0.02 ( 118-> 175)    0.02 ( 118-> 176)    0.02 ( 118-> 174)
 339   9.421     131.6   0.002961   0.002693  -11.929777  -11.216496     0.06 ( 106-> 122)    0.03 ( 107-> 121)    0.02 ( 107-> 122)
 340   9.423     131.6   0.007893   0.005815  20.677859  17.806067     0.03 ( 118-> 175)    0.03 ( 105-> 126)    0.02 ( 105-> 132)
 341   9.427     131.5   0.005281   0.004378  28.156344  25.397318     0.02 ( 115-> 128)    0.02 ( 109-> 124)    0.02 ( 112-> 124)
 342   9.432     131.4   0.004391   0.003712  30.248245  27.894078     0.03 ( 118-> 175)    0.02 ( 117-> 131)    0.02 ( 115-> 150)
 343   9.439     131.4   0.008324   0.007869  20.809132  20.082420     0.07 ( 113-> 126)    0.03 ( 112-> 124)    0.02 ( 110-> 126)
 344   9.448     131.2   0.008396   0.007920  -25.241651  -25.495364     0.04 ( 118-> 144)    0.03 ( 117-> 133)    0.03 ( 117-> 131)
 345   9.454     131.1   0.008444   0.007877  -3.461958  -2.999970     0.04 ( 118-> 144)    0.02 ( 106-> 122)    0.01 ( 110-> 124)
 346   9.455     131.1   0.002098   0.002031   8.538437   7.825398     0.03 (  93-> 119)    0.03 ( 110-> 124)    0.02 (  93-> 124)
 347   9.465     131.0   0.006389   0.005818  -19.304167  -17.274166     0.06 ( 117-> 133)    0.02 ( 118-> 178)    0.02 ( 118-> 177)
 348   9.468     130.9   0.027117   0.023328  -30.984926  -28.805170     0.03 ( 112-> 131)    0.03 ( 117-> 131)    0.02 ( 108-> 131)
 349   9.476     130.8   0.003112   0.002033  14.253342  11.489730     0.06 ( 110-> 124)    0.03 ( 112-> 124)    0.02 ( 112-> 127)
 350   9.480     130.8   0.023259   0.021408  -48.170429  -46.276952     0.01 ( 118-> 176)    0.01 ( 116-> 169)    0.01 ( 115-> 151)
 351   9.484     130.7   0.006322   0.005662  20.173431  19.385534     0.02 ( 118-> 175)    0.01 ( 117-> 133)    0.01 ( 106-> 122)
 352   9.486     130.7   0.011704   0.012417  -36.330014  -30.586836     0.03 ( 118-> 144)    0.03 ( 118-> 176)    0.03 ( 118-> 184)
 353   9.491     130.6   0.017011   0.015187  12.464455  11.777134     0.03 ( 112-> 131)    0.03 ( 113-> 131)    0.02 ( 118-> 144)
 354   9.496     130.6   0.017132   0.015715  -30.648429  -27.814278     0.03 ( 105-> 126)    0.03 ( 116-> 129)    0.02 (  95-> 120)
 355   9.500     130.5   0.023090   0.021986  -48.030608  -47.118575     0.05 ( 118-> 175)    0.02 ( 118-> 179)    0.02 ( 118-> 180)
 356   9.502     130.5   0.004817   0.005041  -11.234718  -11.590384     0.03 ( 118-> 179)    0.03 ( 112-> 133)    0.02 ( 101-> 129)
 357   9.511     130.4   0.014673   0.012741  29.339962  27.417620     0.05 ( 117-> 133)    0.03 ( 105-> 126)    0.03 ( 117-> 134)
 358   9.517     130.3   0.006875   0.005442  -11.877934  -11.077159     0.02 ( 113-> 126)    0.02 ( 110-> 124)    0.01 ( 110-> 140)
 359   9.520     130.2   0.000674   0.000752   0.437464  -0.073036     0.03 ( 105-> 126)    0.02 ( 116-> 129)    0.01 ( 112-> 126)
 360   9.529     130.1   0.019576   0.016842  23.860638  22.074625     0.03 ( 113-> 126)    0.01 ( 112-> 126)    0.01 ( 105-> 132)
 361   9.532     130.1   0.027256   0.022025  -21.213772  -19.107849     0.06 ( 117-> 131)    0.03 ( 117-> 173)    0.03 ( 116-> 131)
 362   9.535     130.0   0.008535   0.007761  -2.576096  -1.492968     0.02 ( 117-> 133)    0.02 ( 101-> 130)    0.01 ( 116-> 130)
 363   9.546     129.9   0.006339   0.006004  40.135260  39.060971     0.05 ( 116-> 129)    0.03 ( 114-> 128)    0.02 ( 117-> 173)
 364   9.549     129.8   0.004367   0.004347  42.253538  40.789873     0.02 ( 107-> 131)    0.02 ( 113-> 137)    0.02 ( 111-> 125)
 365   9.555     129.8   0.002701   0.003051  -7.494057  -8.640997     0.04 ( 116-> 129)    0.02 ( 110-> 124)    0.02 ( 111-> 125)
 366   9.561     129.7   0.024183   0.023911  -26.226174  -26.110734     0.02 (  89-> 119)    0.01 ( 110-> 124)    0.01 ( 118-> 184)
 367   9.569     129.6   0.001426   0.001615   3.576183   2.947424     0.12 ( 116-> 130)    0.08 ( 116-> 129)    0.03 ( 116-> 138)
 368   9.576     129.5   0.012665   0.012169  18.919005  18.293269     0.11 ( 116-> 130)    0.05 ( 118-> 146)    0.02 ( 118-> 147)
 369   9.581     129.4   0.032626   0.027947  42.511467  39.127767     0.03 ( 118-> 180)    0.02 ( 117-> 134)    0.02 ( 104-> 125)
 370   9.589     129.3   0.004280   0.003817  -2.047062  -2.823495     0.17 ( 116-> 130)    0.02 ( 115-> 130)    0.01 ( 102-> 138)
 371   9.592     129.3   0.007080   0.006749  -1.428251  -1.825178     0.03 (  74-> 120)    0.02 ( 115-> 132)    0.02 ( 116-> 130)
 372   9.593     129.2   0.023937   0.021630  -14.633354  -13.906906     0.06 ( 116-> 130)    0.03 (  89-> 119)    0.03 ( 118-> 180)
 373   9.603     129.1   0.016022   0.013579  25.041899  22.502654     0.03 ( 118-> 184)    0.03 ( 107-> 123)    0.01 (  89-> 119)
 374   9.605     129.1   0.019025   0.016859  29.608358  31.002079     0.05 ( 118-> 146)    0.02 ( 118-> 147)    0.02 ( 118-> 144)
 375   9.608     129.0   0.019771   0.017599  12.951293  12.015138     0.03 ( 116-> 130)    0.03 ( 116-> 129)    0.03 ( 115-> 132)
 376   9.610     129.0   0.003350   0.003290   4.802091   5.912550     0.09 ( 116-> 131)    0.04 (  89-> 119)    0.02 ( 118-> 146)
 377   9.615     129.0   0.018901   0.018746  -4.147117  -4.777207     0.03 (  81-> 119)    0.02 (  88-> 119)    0.02 ( 103-> 142)
 378   9.630     128.7   0.024024   0.021799  13.318424  12.076050     0.02 ( 103-> 138)    0.01 ( 103-> 144)    0.01 ( 106-> 127)
 379   9.633     128.7   0.021058   0.018903  -7.502395  -5.338764     0.06 ( 106-> 123)    0.04 ( 117-> 134)    0.04 (  89-> 119)
 380   9.639     128.6   0.015750   0.013611  -29.567666  -27.431516     0.06 ( 116-> 133)    0.03 ( 107-> 123)    0.03 ( 106-> 123)
 381   9.643     128.6   0.011563   0.009772  -0.936236  -0.459249     0.02 ( 118-> 146)    0.01 ( 116-> 130)    0.01 ( 108-> 138)
 382   9.644     128.6   0.038917   0.033749  -55.348241  -51.704095     0.07 ( 106-> 123)    0.04 ( 117-> 134)    0.04 ( 107-> 123)
 383   9.648     128.5   0.018526   0.016139   3.539288   3.468703     0.02 ( 118-> 172)    0.02 ( 112-> 157)    0.01 ( 101-> 121)
 384   9.663     128.3   0.001925   0.002025   8.090198   7.487244     0.03 ( 106-> 123)    0.02 (  89-> 119)    0.02 ( 108-> 127)
 385   9.668     128.2   0.004400   0.003697  -21.204503  -19.531754     0.03 ( 117-> 134)    0.03 ( 101-> 120)    0.02 ( 118-> 146)
 386   9.675     128.1   0.011104   0.009662  -9.490792  -8.617797     0.08 ( 117-> 134)    0.06 ( 116-> 131)    0.03 ( 104-> 125)
 387   9.678     128.1   0.010145   0.008428  15.863903  15.068795     0.12 ( 116-> 131)    0.03 ( 116-> 133)    0.02 ( 117-> 133)
 388   9.680     128.1   0.011301   0.010262  -12.403641  -11.937353     0.07 (  81-> 119)    0.02 (  80-> 123)    0.02 (  82-> 125)
 389   9.687     128.0   0.014958   0.014118   4.490958   5.221736     0.06 (  81-> 119)    0.02 ( 108-> 126)    0.02 ( 103-> 122)
 390   9.693     127.9   0.021354   0.019560  17.169237  15.827154     0.05 ( 112-> 157)    0.02 ( 110-> 157)    0.02 (  96-> 125)
 391   9.697     127.9   0.013690   0.012553  -4.448494  -3.219373     0.03 ( 106-> 123)    0.02 ( 113-> 160)    0.02 (  81-> 119)
 392   9.701     127.8   0.005496   0.005272  12.019254  11.723182     0.05 ( 116-> 131)    0.04 ( 116-> 133)    0.03 (  81-> 119)
 393   9.710     127.7   0.007139   0.005900   8.915895   7.679916     0.04 ( 112-> 126)    0.03 ( 116-> 133)    0.02 ( 112-> 128)
 394   9.711     127.7   0.020845   0.017210   8.034897   7.251681     0.04 (  89-> 119)    0.03 (  81-> 119)    0.02 ( 113-> 128)
 395   9.715     127.6   0.018124   0.017182  -50.199227  -48.672658     0.03 ( 118-> 182)    0.02 (  89-> 119)    0.02 ( 118-> 175)
 396   9.722     127.5   0.005255   0.004437  -18.634106  -17.056494     0.08 (  81-> 119)    0.02 (  81-> 120)    0.01 ( 114-> 143)
 397   9.722     127.5   0.012282   0.010734   4.476150   4.190916     0.02 ( 112-> 157)    0.02 ( 109-> 127)    0.02 ( 108-> 126)
 398   9.730     127.4   0.011641   0.009828  -12.591063  -11.585267     0.06 (  89-> 119)    0.03 ( 117-> 134)    0.02 ( 115-> 157)
 399   9.732     127.4   0.027663   0.024500   0.050338   0.595626     0.07 ( 108-> 126)    0.07 ( 108-> 127)    0.04 ( 116-> 133)
 400   9.741     127.3   0.006092   0.005077  -9.153625  -7.519675     0.03 ( 108-> 126)    0.03 ( 108-> 127)    0.02 ( 118-> 180)
 401   9.745     127.2   0.028070   0.023290  -41.550104  -36.578664     0.03 ( 116-> 133)    0.03 ( 108-> 127)    0.02 (  81-> 119)
 402   9.747     127.2   0.011810   0.008791   4.352308   3.743410     0.04 ( 115-> 132)    0.04 ( 116-> 133)    0.03 ( 114-> 132)
 403   9.750     127.2   0.003531   0.002902  -3.883206  -3.505750     0.04 ( 116-> 133)    0.02 ( 109-> 125)    0.02 ( 111-> 125)
 404   9.756     127.1   0.016252   0.014605  -14.168956  -13.647446     0.02 ( 112-> 126)    0.02 ( 114-> 145)    0.02 ( 114-> 133)
 405   9.759     127.0   0.007654   0.005652  -11.743101  -9.327133     0.06 ( 112-> 126)    0.03 ( 117-> 173)    0.02 ( 112-> 127)
 406   9.766     127.0   0.005989   0.004928  -10.510896  -9.325634     0.02 ( 113-> 128)    0.02 ( 100-> 124)    0.02 ( 112-> 126)
 407   9.768     126.9   0.012880   0.010356  47.453417  43.041664     0.03 ( 109-> 125)    0.03 ( 116-> 133)    0.01 ( 111-> 125)
 408   9.773     126.9   0.004245   0.003049   9.731409   8.038903     0.02 ( 118-> 183)    0.02 ( 110-> 124)    0.02 ( 117-> 134)
 409   9.777     126.8   0.017866   0.015538  32.112867  27.597089     0.02 ( 117-> 173)    0.02 ( 104-> 133)    0.02 ( 104-> 136)
 410   9.785     126.7   0.001910   0.001784  -5.807846  -5.104735     0.02 ( 105-> 121)    0.02 ( 110-> 127)    0.01 ( 117-> 134)
 411   9.789     126.7   0.015588   0.013745  -7.243612  -5.746501     0.01 ( 117-> 173)    0.01 (  89-> 119)    0.01 ( 115-> 142)
 412   9.796     126.6   0.005282   0.004965  -12.348890  -11.743848     0.03 ( 115-> 132)    0.02 ( 114-> 145)    0.02 ( 102-> 121)
 413   9.801     126.5   0.032770   0.027102  69.725785  62.922035     0.02 ( 115-> 157)    0.02 (  89-> 119)    0.01 (  82-> 122)
 414   9.807     126.4   0.000606   0.000705   3.603247   4.589566     0.04 ( 115-> 132)    0.03 ( 113-> 128)    0.03 ( 115-> 142)
 415   9.812     126.4   0.020335   0.017834  -39.519965  -36.946184     0.03 (  86-> 119)    0.03 (  91-> 123)    0.02 (  86-> 120)
 416   9.816     126.3   0.002926   0.002985  -21.268864  -20.885829     0.03 ( 117-> 173)    0.02 ( 115-> 132)    0.01 ( 107-> 124)
 417   9.821     126.2   0.006328   0.005745  39.105030  37.289933     0.02 ( 116-> 173)    0.02 ( 117-> 134)    0.02 ( 114-> 132)
 418   9.827     126.2   0.008194   0.007024  -17.906652  -17.261065     0.02 ( 117-> 173)    0.01 ( 115-> 157)    0.01 (  96-> 125)
 419   9.833     126.1   0.021315   0.019455  29.510093  30.543796     0.02 ( 115-> 159)    0.01 ( 116-> 134)    0.01 ( 115-> 163)
 420   9.837     126.0   0.016526   0.015890  -27.766655  -26.526798     0.05 ( 117-> 169)    0.03 ( 115-> 158)    0.03 ( 111-> 153)
 421   9.843     126.0   0.019316   0.016117  20.977009  19.321471     0.02 ( 116-> 134)    0.02 ( 116-> 133)    0.02 ( 111-> 144)
 422   9.847     125.9   0.006409   0.004919  -22.474179  -19.955723     0.01 (  99-> 125)    0.01 ( 110-> 131)    0.01 ( 118-> 180)
 423   9.855     125.8   0.034433   0.029934  -17.706651  -16.456504     0.01 ( 110-> 130)    0.01 ( 112-> 156)    0.01 ( 110-> 133)
 424   9.858     125.8   0.019315   0.016893  -53.053840  -49.646450     0.02 ( 115-> 158)    0.02 ( 114-> 145)    0.01 ( 118-> 151)
 425   9.865     125.7   0.027322   0.022825  25.727237  21.607428     0.02 ( 111-> 146)    0.02 (  86-> 119)    0.02 ( 118-> 151)
 426   9.867     125.7   0.004626   0.004297  -19.403729  -23.471971     0.03 ( 117-> 173)    0.02 ( 117-> 169)    0.02 ( 114-> 132)
 427   9.870     125.6   0.032816   0.025268  -25.872036  -21.982812     0.03 ( 117-> 173)    0.03 ( 117-> 169)    0.02 (  86-> 119)
 428   9.873     125.6   0.058858   0.053690  -85.419380  -80.306020     0.03 ( 116-> 134)    0.02 ( 117-> 169)    0.02 ( 115-> 158)
 429   9.883     125.5   0.014652   0.011408  -0.363764   1.314721     0.02 ( 109-> 125)    0.01 (  97-> 133)    0.01 ( 118-> 150)
 430   9.889     125.4   0.007903   0.007049  -13.154543  -12.275500     0.07 ( 117-> 173)    0.01 ( 116-> 173)    0.01 ( 117-> 178)
 431   9.898     125.3   0.012741   0.011507  -9.440990  -8.743105     0.02 (  98-> 121)    0.01 (  84-> 119)    0.01 ( 105-> 121)
 432   9.901     125.2   0.006890   0.005592   2.281241   1.504208     0.03 (  86-> 119)    0.01 (  84-> 125)    0.01 ( 118-> 151)
 433   9.908     125.1   0.038212   0.033281  45.734461  44.321701     0.03 (  82-> 123)    0.02 ( 101-> 120)    0.02 ( 101-> 121)
 434   9.911     125.1   0.044422   0.042283  -52.542896  -51.442413     0.02 (  82-> 123)    0.02 ( 107-> 125)    0.02 (  80-> 125)
 435   9.918     125.0   0.053460   0.047002  -4.778478  -2.787061     0.03 (  88-> 119)    0.02 (  82-> 123)    0.02 (  84-> 119)
 436   9.924     124.9   0.017677   0.016951  -66.379115  -64.279674     0.01 ( 106-> 122)    0.01 ( 109-> 125)    0.01 ( 116-> 134)
 437   9.928     124.9   0.005778   0.004306  -8.996173  -5.707063     0.02 (  86-> 119)    0.02 ( 106-> 125)    0.02 (  80-> 119)
 438   9.935     124.8   0.000460   0.000466   0.099992   0.666042     0.02 (  82-> 123)    0.01 ( 107-> 124)    0.01 ( 105-> 121)
 439   9.939     124.7   0.013293   0.011383  20.826537  18.944768     0.02 ( 117-> 137)    0.02 ( 117-> 138)    0.01 ( 114-> 149)
 440   9.942     124.7   0.028623   0.025532  -25.688713  -24.482342     0.02 ( 116-> 134)    0.02 ( 114-> 132)    0.02 (  65-> 119)
 441   9.946     124.7   0.011328   0.009100  -21.328310  -19.164142     0.07 (  86-> 119)    0.04 (  88-> 119)    0.03 (  86-> 120)
 442   9.955     124.5   0.017898   0.015493  -18.426214  -16.776296     0.03 (  84-> 119)    0.03 ( 105-> 122)    0.02 (  86-> 119)
 443   9.957     124.5   0.046557   0.039824  11.607216   7.532998     0.02 (  65-> 119)    0.02 (  93-> 128)    0.02 (  68-> 119)
 444   9.960     124.5   0.028251   0.023376  -5.392007  -5.149188     0.04 ( 116-> 173)    0.02 ( 105-> 122)    0.02 ( 116-> 171)
 445   9.962     124.5   0.020887   0.016812   5.241430   4.067662     0.12 ( 116-> 134)    0.02 ( 115-> 134)    0.02 ( 116-> 136)
 446   9.968     124.4   0.029220   0.027430  17.736092  17.373289     0.06 ( 105-> 122)    0.02 (  87-> 119)    0.02 ( 106-> 125)
 447   9.975     124.3   0.000064   0.000068  -1.118065  -1.168558     0.09 (  90-> 121)    0.05 (  90-> 120)    0.04 (  90-> 119)
 448   9.978     124.3   0.006163   0.005432  17.082329  15.953546     0.12 ( 107-> 125)    0.06 ( 106-> 125)    0.02 ( 106-> 124)
 449   9.984     124.2   0.007728   0.007071   1.434117   3.224597     0.04 ( 116-> 134)    0.01 ( 111-> 130)    0.01 (  90-> 121)
 450   9.986     124.2   0.007188   0.006384  -18.433568  -17.693181     0.02 ( 113-> 150)    0.01 ( 106-> 125)    0.01 ( 118-> 184)
 451   9.991     124.1   0.023022   0.020828  -62.460333  -56.853846     0.02 ( 116-> 134)    0.02 ( 118-> 181)    0.01 ( 116-> 173)
 452   9.999     124.0   0.005195   0.005776  -2.316862  -1.191703     0.03 (  90-> 121)    0.02 (  90-> 119)    0.02 (  90-> 120)

sTD-DFT done

Total run time:      204.818 sec

           *** ORCA-CIS/TD-DFT FINISHED WITHOUT ERROR ***


-------------------------------------------------------------------------------
                          DFT DISPERSION CORRECTION                            
                                                                               
                              DFTD3 V3.1  Rev 1                                
                              USING zero damping                               
-------------------------------------------------------------------------------
The omegaB97X-D3 functional is recognized. Fit by Chai et al.
Active option DFTDOPT                   ...         3   

molecular C6(AA) [au] = 93775.601368 


            DFT-D V3
 parameters
 s6 scaling factor         :     1.0000 
 rs6 scaling factor        :     1.2810 
 s8 scaling factor         :     1.0000 
 rs8 scaling factor        :     1.0940 
 Damping factor alpha6     :    14.0000 
 Damping factor alpha8     :    16.0000 
 ad hoc parameters k1-k3   :    16.0000     1.3333    -4.0000 

 Edisp/kcal,au: -30.664070208485  -0.048866301156 
 E6   /kcal   : -15.220576985 
 E8   /kcal   : -15.443493224 
 % E8         :  50.363481164 

-------------------------   ----------------
Dispersion correction           -0.048866301
-------------------------   ----------------


-------------------------   --------------------
FINAL SINGLE POINT ENERGY     -2758.366370083384
-------------------------   --------------------


                            ***************************************
                            *     ORCA property calculations      *
                            ***************************************

                                    ---------------------
                                    Active property flags
                                    ---------------------
   (+) Dipole Moment
   (+) Quadrupole Moment


------------------------------------------------------------------------------
                       ORCA ELECTRIC PROPERTIES CALCULATION
------------------------------------------------------------------------------

Dipole Moment Calculation                       ... on
Quadrupole Moment Calculation                   ... on
Polarizability Calculation                      ... off
GBWName                                         ... total_job2.gbw
Electron density file                           ... total_job2.scfp.tmp

-------------
DIPOLE MOMENT
-------------
                                X             Y             Z
Electronic contribution:     67.07529      -6.30105      -9.73618
Nuclear contribution   :    -67.32987       6.25125       9.49733
                        -----------------------------------------
Total Dipole Moment    :     -0.25458      -0.04980      -0.23885
                        -----------------------------------------
Magnitude (a.u.)       :      0.35262
Magnitude (Debye)      :      0.89628


------------------------
QUADRUPOLE MOMENT (A.U.)
------------------------

                XX           YY           ZZ           XY           XZ           YZ
  NUC     44386.93103   4141.98717   5898.14219   -586.58328  -2844.16252   4361.31280
  EL     -44537.25287  -4343.64677  -6117.73554    580.71712   2832.77126  -4337.31947
  TOT      -150.32185   -201.65961   -219.59336     -5.86616    -11.39126     23.99332

--------------------------------------------------------------------------
[[4593,1],5]: A high-performance Open MPI point-to-point messaging module
was unable to find any relevant network interfaces:

Module: OpenFabrics (openib)
  Host: cx1-136-6-1

Another transport will be used instead, although this may result in
lower performance.
--------------------------------------------------------------------------

Timings for individual modules:

Sum of individual times         ...      648.642 sec (=  10.811 min)
GTO integral calculation        ...       14.600 sec (=   0.243 min)   2.3 %
SCF iterations                  ...      425.683 sec (=   7.095 min)  65.6 %
CIS module                      ...      208.359 sec (=   3.473 min)  32.1 %



                             ****ORCA TERMINATED NORMALLY****
TOTAL RUN TIME: 0 days 0 hours 36 minutes 5 seconds 322 msec
