   49
Geometry Step: 1392
    C     -6.68345776     -0.51598913     -2.87286568      4.08153319
    C     -5.45587769     -0.42244094     -2.26463371      4.11914777
    C     -5.36278856     -0.13431164     -0.86481073      3.82806565
    C     -6.57623806      0.06525722     -0.11027168      3.82366985
    C     -7.83583848     -0.04220362     -0.78470253      4.11793761
    C     -7.88134727     -0.32623424     -2.12719106      4.08098276
    N     -4.14410745     -0.05273234     -0.27505544      5.31057358
    C     -4.10265680      0.21596769      1.05069744      3.84502509
    C     -5.32125666      0.44776812      1.79760761      3.82359132
    N     -6.54095405      0.36522030      1.21080630      5.30995095
    C     -5.23848846      0.77890787      3.18793756      4.13175627
    C     -4.01239180      0.88038582      3.79855567      4.07872331
    C     -2.81540488      0.64610720      3.07492700      4.11579754
    C     -2.82587329      0.30630245      1.73100506      3.98370924
    H     -1.86765205      0.71386799      3.60288202      0.91451892
    H     -3.94669362      1.13329291      4.85374499      0.91560248
    H     -6.15551935      0.94794685      3.74582476      0.90334102
    H     -8.83839298     -0.40754467     -2.63637606      0.91631314
    H     -4.54162216     -0.56917966     -2.83453996      0.90687385
    H     -6.75175119     -0.73748950     -3.93493905      0.91631599
    S      2.65991885      1.82967070      1.99716150      5.97050391
    C      2.14651191      0.68146370      0.76306004      3.95454516
    C      3.21963103      0.29638003     -0.01555555      4.16168502
    C      4.45906696      0.91449800      0.35828499      3.96785432
    C      4.30663685      1.77849040      1.42875233      4.13663531
    C      0.76843875      0.25565447      0.64894050      3.95261016
    C     -0.30885967      0.64599451      1.41826265      4.17335267
    C     -1.55336306      0.04395073      1.02950079      3.97006473
    C     -1.39810477     -0.81949257     -0.04065301      4.11544587
    S      0.25784627     -0.89990054     -0.57923101      5.97477326
    H     -0.21755637      1.36769535      2.22413254      0.90174499
    H      3.12185533     -0.39635818     -0.84424567      0.88912768
    H     -2.16927657     -1.41927917     -0.50556331      0.88182112
    H      5.08726580      2.34818672      1.91699046      0.89529565
    C      8.22996107      0.46179173     -1.58469721      3.93222538
    N      7.91651358      1.60526418     -0.97995459      5.27575107
    C      6.70275818      1.71084172     -0.36976701      3.94020585
    C      5.75082401      0.69207409     -0.32357456      4.02973674
    C      6.08185923     -0.55110742     -0.95784850      3.83609851
    C      7.34913451     -0.65884009     -1.60828361      3.87999690
    N      5.22434180     -1.62482464     -0.92034818      5.27090269
    C      5.61957503     -2.73166152     -1.53651690      3.92102869
    C      6.87172237     -2.82686598     -2.20805399      3.92835727
    N      7.73258468     -1.81774435     -2.24289095      5.26508091
    H      6.48134075      2.67658715      0.09653411      0.93803090
    H      4.94353973     -3.59536023     -1.50890333      0.94051972
    H      7.15838696     -3.75842862     -2.71066209      0.93914502
    H     -8.75161226      0.10412427     -0.21743572      0.90509541
    H      9.20727162      0.39419689     -2.07603723      0.92893558
