
                                 *****************
                                 * O   R   C   A *
                                 *****************

           --- An Ab Initio, DFT and Semiempirical electronic structure package ---

                  #######################################################
                  #                        -***-                        #
                  #  Department of molecular theory and spectroscopy    #
                  #              Directorship: Frank Neese              #
                  # Max Planck Institute for Chemical Energy Conversion #
                  #                  D-45470 Muelheim/Ruhr              #
                  #                       Germany                       #
                  #                                                     #
                  #                  All rights reserved                #
                  #                        -***-                        #
                  #######################################################


                         Program Version 4.0.0 -  RELEASE  -


 With contributions from (in alphabetic order):
   Daniel Aravena         : Magnetic Properties
   Michael Atanasov       : Ab Initio Ligand Field Theory
   Ute Becker             : Parallelization
   Martin Brehm           : Molecular dynamics
   Dmytro Bykov           : SCF Hessian
   Vijay G. Chilkuri      : MRCI spin determinant printing
   Dipayan Datta          : RHF DLPNO-CCSD density
   Achintya Kumar Dutta   : EOM-CC, STEOM-CC
   Dmitry Ganyushin       : Spin-Orbit,Spin-Spin,Magnetic field MRCI
   Yang Guo               : DLPNO-NEVPT2, CIM, IAO-localization
   Andreas Hansen         : Spin unrestricted coupled pair/coupled cluster methods
   Lee Huntington         : MR-EOM, pCC
   Robert Izsak           : Overlap fitted RIJCOSX, COSX-SCS-MP3, EOM
   Christian Kollmar      : KDIIS, OOCD, Brueckner-CCSD(T), CCSD density
   Simone Kossmann        : Meta GGA functionals, TD-DFT gradient, OOMP2, MP2 Hessian
   Martin Krupicka        : AUTO-CI
   Dagmar Lenk            : GEPOL surface
   Dimitrios Liakos       : Extrapolation schemes; parallel MDCI
   Dimitrios Manganas     : ROCIS; embedding schemes
   Dimitrios Pantazis     : SARC Basis sets
   Taras Petrenko         : DFT Hessian,TD-DFT gradient, ASA, ECA, R-Raman, ABS, FL, XAS/XES, NRVS
   Peter Pinski           : DLPNO-MP2
   Christoph Reimann      : Effective Core Potentials
   Marius Retegan         : Local ZFS, SOC
   Christoph Riplinger    : Optimizer, TS searches, QM/MM, DLPNO-CCSD(T), (RO)-DLPNO pert. Triples
   Tobias Risthaus        : Range-separated hybrids, TD-DFT gradient, RPA, STAB
   Michael Roemelt        : Restricted open shell CIS
   Masaaki Saitow         : Open-shell DLPNO
   Barbara Sandhoefer     : DKH picture change effects
   Kantharuban Sivalingam : CASSCF convergence, NEVPT2, FIC-MRCI
   Georgi Stoychev        : AutoAux
   Boris Wezisla          : Elementary symmetry handling
   Frank Wennmohs         : Technical directorship


 We gratefully acknowledge several colleagues who have allowed us to
 interface, adapt or use parts of their codes:
   Stefan Grimme, W. Hujo, H. Kruse,             : VdW corrections, initial TS optimization,
                  C. Bannwarth                     DFT functionals, gCP, sTDA/sTD-DF
   Ed Valeev                                     : LibInt (2-el integral package), F12 methods
   Garnet Chan, S. Sharma, J. Yang, R. Olivares  : DMRG
   Ulf Ekstrom                                   : XCFun DFT Library
   Mihaly Kallay                                 : mrcc  (arbitrary order and MRCC methods)
   Jiri Pittner, Ondrej Demel                    : Mk-CCSD
   Frank Weinhold                                : gennbo (NPA and NBO analysis)
   Christopher J. Cramer and Donald G. Truhlar   : smd solvation model


 Your calculation uses the libint2 library for the computation of 2-el integrals
 For citations please refer to: http://libint.valeyev.net

 This ORCA versions uses:
   CBLAS   interface :  Fast vector & matrix operations
   LAPACKE interface :  Fast linear algebra routines
   SCALAPACK package :  Parallel linear algebra routines


Your calculation utilizes the atom-pairwise dispersion correction
with the zero-damping scheme (D30)
Cite in your paper:
S.Grimme, J.Antony, S.Ehrlich and H.Krieg, J.Chem.Phys., 132, (2010), 154104 
   

XCFun DFT library Copyright 2009-2010 Ulf Ekstrom and contributors.
See http://admol.org/xcfun for more information. This is free soft-
ware; see the source code for copying conditions. There is ABSOLUTELY
NO WARRANTY; not even for MERCHANTABILITY or FITNESS FOR A PARTICULAR
PURPOSE. For details see the documentation. Scientific users of this 
library should cite U. Ekstrom, L. Visscher, R. Bast, A. J. Thorvald-
sen and K. Ruud; J.Chem.Theor.Comp. 2010, DOI: 10.1021/ct100117s
XCFun Version 0.99 
Your calculation utilizes the basis: def2-TZVP
   F. Weigend and R. Ahlrichs, Phys. Chem. Chem. Phys. 7, 3297 (2005).

Your calculation utilizes the auxiliary basis: def2/J
   F. Weigend, Phys. Chem. Chem. Phys. 8, 1057 (2006).

================================================================================
                                        WARNINGS
                       Please study these warnings very carefully!
================================================================================

Warning: TCutStore was < 0. Adjusted to Thresh (uncritical)
INFO   : Checking CIS options ...

WARNING: CIS/ROCIS methods need fully converged wavefunctions
  ===> : Setting SCFConvForced true
         You can overwrite this default with %scf ConvForced false 


INFO   : the flag for use of LIBINT has been found!

Your calculation utilizes the atom-pairwise dispersion correction
with the zero-damping scheme (D30)
Cite in your paper:
S.Grimme, J.Antony, S.Ehrlich and H.Krieg, J.Chem.Phys., 132, (2010), 154104 
   

XCFun DFT library Copyright 2009-2010 Ulf Ekstrom and contributors.
See http://admol.org/xcfun for more information. This is free soft-
ware; see the source code for copying conditions. There is ABSOLUTELY
NO WARRANTY; not even for MERCHANTABILITY or FITNESS FOR A PARTICULAR
PURPOSE. For details see the documentation. Scientific users of this 
library should cite U. Ekstrom, L. Visscher, R. Bast, A. J. Thorvald-
sen and K. Ruud; J.Chem.Theor.Comp. 2010, DOI: 10.1021/ct100117s
XCFun Version 0.99 
Your calculation utilizes the basis: def2-TZVP
   F. Weigend and R. Ahlrichs, Phys. Chem. Chem. Phys. 7, 3297 (2005).

Your calculation utilizes the auxiliary basis: def2/J
   F. Weigend, Phys. Chem. Chem. Phys. 8, 1057 (2006).

================================================================================
                                        WARNINGS
                       Please study these warnings very carefully!
================================================================================

INFO   : Checking CIS options ...

INFO   : the flag for use of LIBINT has been found!

================================================================================
                                       INPUT FILE
================================================================================
NAME = total.inp
|  1> # 
|  2> !wB97X-D3 def2-TZVP def2/J RIJCOSX Grid5 FinalGrid6 TightSCF
|  3> %pal 
|  4>  nprocs 24
|  5> end
|  6> %tddft
|  7>   Mode sTDDFT
|  8>   nroots 2
|  9>   Ethresh 10.0
| 10>   maxcore 5000
| 11>   triplets true
| 12> end
| 13> * xyz 0 1 
| 14> C -3.98856019 0.27273976 2.87138321
| 15> C -3.42972827 0.20552833 1.59716035
| 16> C -4.27106058 -0.02180304 0.49238646
| 17> C -5.67196807 -0.13702809 0.71607316
| 18> C -6.23614242 -0.07847618 1.99960118
| 19> C -5.37178143 0.12153192 3.07356339
| 20> C -4.07315412 -0.11474293 -0.94491582
| 21> C -5.37141328 -0.24177133 -1.51632356
| 22> N -6.31271980 -0.28073360 -0.50260365
| 23> C -5.59118651 -0.28455528 -2.90187528
| 24> C -4.47409885 -0.17724206 -3.72858143
| 25> C -3.18361191 -0.06483518 -3.19292092
| 26> C -2.94586795 -0.05961493 -1.80613233
| 27> H -2.33413563 -0.01100807 -3.86939331
| 28> H -7.31418064 -0.34872912 -0.63596332
| 29> H -4.60137080 -0.19188567 -4.80756939
| 30> H -2.36049848 0.34604926 1.46878088
| 31> H -7.30834320 -0.17522228 2.14819085
| 32> H -5.77305642 0.17405079 4.08213846
| 33> H -3.34421405 0.44787150 3.72847452
| 34> N 3.16049429 0.00947936 -0.01917827
| 35> C 2.29731480 0.55639846 -0.95470446
| 36> C 2.89418299 1.42857586 -1.85532126
| 37> S 4.59558687 1.57449830 -1.52660860
| 38> C 4.40400128 0.43738541 -0.17664133
| 39> C 0.88522703 0.19920931 -0.93405428
| 40> S -0.28223819 0.86980364 -2.09992577
| 41> C -1.56420743 -0.04900731 -1.31030690
| 42> C -1.01663470 -0.78463410 -0.27503706
| 43> N 0.33583370 -0.64024040 -0.07065232
| 44> H 2.40264232 1.96040251 -2.66073055
| 45> H -1.58044276 -1.47949726 0.34346569
| 46> C 7.67939976 -0.83744400 2.38163688
| 47> C 6.39765695 -1.28883169 2.55620526
| 48> C 5.32411334 -0.86757360 1.71344845
| 49> C 5.51352879 0.02072091 0.67113251
| 50> C 6.85663426 0.53004515 0.44319218
| 51> C 7.95943062 0.09128163 1.31639831
| 52> N 7.13778571 1.38087127 -0.52538315
| 53> S 8.99371847 1.72565171 -0.39610090
| 54> N 9.16680326 0.57769678 1.07616343
| 55> H 6.17815820 -1.98976913 3.35768053
| 56> H 4.32577355 -1.25630426 1.89533298
| 57> H -6.59236086 -0.38097241 -3.31210823
| 58> H 8.48459036 -1.16786996 3.03162341
| 59> *
| 60> $new_job
| 61> # 
| 62> !wB97X-D3 def2-TZVP def2/J RIJCOSX Grid5 FinalGrid6 TightSCF
| 63> %pal 
| 64>  nprocs 24
| 65> end
| 66> %elprop
| 67>    dipole     true
| 68>    quadrupole true
| 69> end
| 70> %tddft
| 71>   Mode sTDDFT
| 72>   nroots 2
| 73>   Ethresh 10.0
| 74>   maxcore 5000
| 75> end
| 76> * xyz 0 1 
| 77> C -3.98856019 0.27273976 2.87138321
| 78> C -3.42972827 0.20552833 1.59716035
| 79> C -4.27106058 -0.02180304 0.49238646
| 80> C -5.67196807 -0.13702809 0.71607316
| 81> C -6.23614242 -0.07847618 1.99960118
| 82> C -5.37178143 0.12153192 3.07356339
| 83> C -4.07315412 -0.11474293 -0.94491582
| 84> C -5.37141328 -0.24177133 -1.51632356
| 85> N -6.31271980 -0.28073360 -0.50260365
| 86> C -5.59118651 -0.28455528 -2.90187528
| 87> C -4.47409885 -0.17724206 -3.72858143
| 88> C -3.18361191 -0.06483518 -3.19292092
| 89> C -2.94586795 -0.05961493 -1.80613233
| 90> H -2.33413563 -0.01100807 -3.86939331
| 91> H -7.31418064 -0.34872912 -0.63596332
| 92> H -4.60137080 -0.19188567 -4.80756939
| 93> H -2.36049848 0.34604926 1.46878088
| 94> H -7.30834320 -0.17522228 2.14819085
| 95> H -5.77305642 0.17405079 4.08213846
| 96> H -3.34421405 0.44787150 3.72847452
| 97> N 3.16049429 0.00947936 -0.01917827
| 98> C 2.29731480 0.55639846 -0.95470446
| 99> C 2.89418299 1.42857586 -1.85532126
|100> S 4.59558687 1.57449830 -1.52660860
|101> C 4.40400128 0.43738541 -0.17664133
|102> C 0.88522703 0.19920931 -0.93405428
|103> S -0.28223819 0.86980364 -2.09992577
|104> C -1.56420743 -0.04900731 -1.31030690
|105> C -1.01663470 -0.78463410 -0.27503706
|106> N 0.33583370 -0.64024040 -0.07065232
|107> H 2.40264232 1.96040251 -2.66073055
|108> H -1.58044276 -1.47949726 0.34346569
|109> C 7.67939976 -0.83744400 2.38163688
|110> C 6.39765695 -1.28883169 2.55620526
|111> C 5.32411334 -0.86757360 1.71344845
|112> C 5.51352879 0.02072091 0.67113251
|113> C 6.85663426 0.53004515 0.44319218
|114> C 7.95943062 0.09128163 1.31639831
|115> N 7.13778571 1.38087127 -0.52538315
|116> S 8.99371847 1.72565171 -0.39610090
|117> N 9.16680326 0.57769678 1.07616343
|118> H 6.17815820 -1.98976913 3.35768053
|119> H 4.32577355 -1.25630426 1.89533298
|120> H -6.59236086 -0.38097241 -3.31210823
|121> H 8.48459036 -1.16786996 3.03162341
|122> *
|123> 
|124>                          ****END OF INPUT****
================================================================================


                 $$$$$$$$$$$$$$$$$$$$$$$$$$$$$$$$$$$$$$$$$$$$$$ 
                 $ THERE ARE  2 JOBS TO BE PROCESSED THIS RUN $
                 $$$$$$$$$$$$$$$$$$$$$$$$$$$$$$$$$$$$$$$$$$$$$$ 




                 $$$$$$$$$$$$$$$$  JOB NUMBER  1 $$$$$$$$$$$$$$


                       ****************************
                       * Single Point Calculation *
                       ****************************

---------------------------------
CARTESIAN COORDINATES (ANGSTROEM)
---------------------------------
  C     -3.988560    0.272740    2.871383
  C     -3.429728    0.205528    1.597160
  C     -4.271061   -0.021803    0.492386
  C     -5.671968   -0.137028    0.716073
  C     -6.236142   -0.078476    1.999601
  C     -5.371781    0.121532    3.073563
  C     -4.073154   -0.114743   -0.944916
  C     -5.371413   -0.241771   -1.516324
  N     -6.312720   -0.280734   -0.502604
  C     -5.591187   -0.284555   -2.901875
  C     -4.474099   -0.177242   -3.728581
  C     -3.183612   -0.064835   -3.192921
  C     -2.945868   -0.059615   -1.806132
  H     -2.334136   -0.011008   -3.869393
  H     -7.314181   -0.348729   -0.635963
  H     -4.601371   -0.191886   -4.807569
  H     -2.360498    0.346049    1.468781
  H     -7.308343   -0.175222    2.148191
  H     -5.773056    0.174051    4.082138
  H     -3.344214    0.447871    3.728475
  N      3.160494    0.009479   -0.019178
  C      2.297315    0.556398   -0.954704
  C      2.894183    1.428576   -1.855321
  S      4.595587    1.574498   -1.526609
  C      4.404001    0.437385   -0.176641
  C      0.885227    0.199209   -0.934054
  S     -0.282238    0.869804   -2.099926
  C     -1.564207   -0.049007   -1.310307
  C     -1.016635   -0.784634   -0.275037
  N      0.335834   -0.640240   -0.070652
  H      2.402642    1.960403   -2.660731
  H     -1.580443   -1.479497    0.343466
  C      7.679400   -0.837444    2.381637
  C      6.397657   -1.288832    2.556205
  C      5.324113   -0.867574    1.713448
  C      5.513529    0.020721    0.671133
  C      6.856634    0.530045    0.443192
  C      7.959431    0.091282    1.316398
  N      7.137786    1.380871   -0.525383
  S      8.993718    1.725652   -0.396101
  N      9.166803    0.577697    1.076163
  H      6.178158   -1.989769    3.357681
  H      4.325774   -1.256304    1.895333
  H     -6.592361   -0.380972   -3.312108
  H      8.484590   -1.167870    3.031623

----------------------------
CARTESIAN COORDINATES (A.U.)
----------------------------
  NO LB      ZA    FRAG     MASS         X           Y           Z
   0 C     6.0000    0    12.011   -7.537286    0.515403    5.426128
   1 C     6.0000    0    12.011   -6.481247    0.388392    3.018196
   2 C     6.0000    0    12.011   -8.071135   -0.041202    0.930476
   3 C     6.0000    0    12.011  -10.718466   -0.258946    1.353182
   4 C     6.0000    0    12.011  -11.784601   -0.148298    3.778699
   5 C     6.0000    0    12.011  -10.151196    0.229662    5.808193
   6 C     6.0000    0    12.011   -7.697146   -0.216833   -1.785632
   7 C     6.0000    0    12.011  -10.150500   -0.456882   -2.865436
   8 N     7.0000    0    14.007  -11.929312   -0.530510   -0.949783
   9 C     6.0000    0    12.011  -10.565811   -0.537732   -5.483750
  10 C     6.0000    0    12.011   -8.454822   -0.334939   -7.045998
  11 C     6.0000    0    12.011   -6.016155   -0.122521   -6.033746
  12 C     6.0000    0    12.011   -5.566884   -0.112656   -3.413095
  13 H     1.0000    0     1.008   -4.410877   -0.020802   -7.312094
  14 H     1.0000    0     1.008  -13.821798   -0.659003   -1.201797
  15 H     1.0000    0     1.008   -8.695331   -0.362611   -9.084990
  16 H     1.0000    0     1.008   -4.460696    0.653938    2.775594
  17 H     1.0000    0     1.008  -13.810767   -0.331122    4.059492
  18 H     1.0000    0     1.008  -10.909496    0.328908    7.714124
  19 H     1.0000    0     1.008   -6.319649    0.846354    7.045796
  20 N     7.0000    0    14.007    5.972469    0.017913   -0.036242
  21 C     6.0000    0    12.011    4.341296    1.051441   -1.804130
  22 C     6.0000    0    12.011    5.469213    2.699617   -3.506049
  23 S    16.0000    0    32.060    8.684401    2.975371   -2.884872
  24 C     6.0000    0    12.011    8.322356    0.826539   -0.333804
  25 C     6.0000    0    12.011    1.672837    0.376451   -1.765107
  26 S    16.0000    0    32.060   -0.533353    1.643691   -3.968285
  27 C     6.0000    0    12.011   -2.955924   -0.092610   -2.476121
  28 C     6.0000    0    12.011   -1.921161   -1.482744   -0.519745
  29 N     7.0000    0    14.007    0.634634   -1.209879   -0.133514
  30 H     1.0000    0     1.008    4.540336    3.704624   -5.028052
  31 H     1.0000    0     1.008   -2.986604   -2.795845    0.649056
  32 C     6.0000    0    12.011   14.511962   -1.582540    4.500641
  33 C     6.0000    0    12.011   12.089820   -2.435539    4.830528
  34 C     6.0000    0    12.011   10.061116   -1.639477    3.237948
  35 C     6.0000    0    12.011   10.419059    0.039157    1.268257
  36 C     6.0000    0    12.011   12.957161    1.001640    0.837512
  37 C     6.0000    0    12.011   15.041144    0.172497    2.487632
  38 N     7.0000    0    14.007   13.488460    2.609469   -0.992830
  39 S    16.0000    0    32.060   16.995665    3.261009   -0.748522
  40 N     7.0000    0    14.007   17.322748    1.091689    2.033654
  41 H     1.0000    0     1.008   11.675027   -3.760119    6.345097
  42 H     1.0000    0     1.008    8.174527   -2.374071    3.581660
  43 H     1.0000    0     1.008  -12.457757   -0.719934   -6.258977
  44 H     1.0000    0     1.008   16.033552   -2.206954    5.728938

--------------------------------
INTERNAL COORDINATES (ANGSTROEM)
--------------------------------
 C      0   0   0     0.000000000000     0.00000000     0.00000000
 C      1   0   0     1.393001933983     0.00000000     0.00000000
 C      2   1   0     1.407140702155   119.08507778     0.00000000
 C      3   2   1     1.423325102513   118.56633970     1.76758779
 C      4   3   2     1.403269468594   122.41719581   357.73940377
 C      5   4   3     1.393024762740   117.49669501     1.02671893
 C      3   2   1     1.453837210336   134.83984645   177.91577729
 C      7   3   2     1.424120734440   106.15745593   185.20188989
 N      8   7   3     1.383908985088   109.18811012   357.72812059
 C      8   7   3     1.403525670516   122.79015878   176.43758945
 C     10   8   7     1.393859399566   117.23682829   359.08935818
 C     11  10   8     1.401757479365   121.15432539     1.54030432
 C     12  11  10     1.407029507466   122.17393811     0.26332007
 H     12  11  10     1.087254433188   119.04499940   178.30991610
 H      9   8   7     1.012586789552   125.31871280   178.71843685
 H     11  10   8     1.086566888137   119.60761623   180.84456768
 H      2   1   3     1.086038564651   119.79171776   178.91263232
 H      5   4   3     1.086762720436   121.19826393   180.40146962
 H      6   5   4     1.086739858996   119.55964148   179.89454366
 H      1   2   3     1.086489110928   119.43656315   179.99003465
 N     17   2   1     5.727884679011   166.42575397   135.05661847
 C     21  17   2     1.385427221502    63.36416586    77.13734404
 C     22  21  17     1.388544444282   114.71620958   154.57779137
 S     23  22  21     1.738999866078   110.52791107     0.00000000
 C     21  17   2     1.324465113572   156.47164445   161.68458023
 C     22  21  17     1.456709438768   119.84049257   334.62456814
 S     26  22  21     1.780990771041   122.26454141   179.67588177
 C     13  12  11     1.467971788272   119.46975950   175.05345256
 C     28  13  12     1.383027949978   128.43553956   223.22933409
 N     26  22  21     1.323620712742   124.54898134   359.59387449
 H     23  22  21     1.083114001540   126.55890549   180.00347733
 H     29  28  13     1.087777546837   124.06831596   358.44862192
 C     25  21  17     4.347207451589   122.86670795   106.10669677
 C     33  25  21     1.370069194226    57.77289498     0.00000000
 C     34  33  25     1.428353353258   122.05925029     0.00000000
 C     35  34  33     1.382522284802   122.09676203     0.00000000
 C     36  35  34     1.454407191620   118.01389674     0.00000000
 C     33  25  21     1.440722662204    61.46430989   180.01380397
 N     37  36  35     1.319503465019   122.52161855   179.99716088
 S     39  37  36     1.892108311279   106.04198886   179.99957735
 N     38  33  25     1.323654481932   123.25537705   179.99971460
 H     34  33  25     1.087131824788   119.68622245   180.00003146
 H     35  34  33     1.086681114483   119.09359453   179.99823755
 H     10   8   7     1.086249241805   121.32232939   180.06398883
 H     33  25  21     1.086276072898   178.90379456     0.00000000

---------------------------
INTERNAL COORDINATES (A.U.)
---------------------------
 C      0   0   0     0.000000000000     0.00000000     0.00000000
 C      1   0   0     2.632392159250     0.00000000     0.00000000
 C      2   1   0     2.659110558967   119.08507778     0.00000000
 C      3   2   1     2.689694643284   118.56633970     1.76758779
 C      4   3   2     2.651794987736   122.41719581   357.73940377
 C      5   4   3     2.632435299350   117.49669501     1.02671893
 C      3   2   1     2.747354170838   134.83984645   177.91577729
 C      7   3   2     2.691198169731   106.15745593   185.20188989
 N      8   7   3     2.615208976090   109.18811012   357.72812059
 C      8   7   3     2.652279139203   122.79015878   176.43758945
 C     10   8   7     2.634012534372   117.23682829   359.08935818
 C     11  10   8     2.648937742175   121.15432539     1.54030432
 C     12  11  10     2.658900431457   122.17393811     0.26332007
 H     12  11  10     2.054613116616   119.04499940   178.30991610
 H      9   8   7     1.913511719081   125.31871280   178.71843685
 H     11  10   8     2.053313844766   119.60761623   180.84456768
 H      2   1   3     2.052315458067   119.79171776   178.91263232
 H      5   4   3     2.053683914178   121.19826393   180.40146962
 H      6   5   4     2.053640712319   119.55964148   179.89454366
 H      1   2   3     2.053166867142   119.43656315   179.99003465
 N     17   2   1    10.824133370014   166.42575397   135.05661847
 C     21  17   2     2.618078027117    63.36416586    77.13734404
 C     22  21  17     2.623968724471   114.71620958   154.57779137
 S     23  22  21     3.286233493813   110.52791107     0.00000000
 C     21  17   2     2.502876338585   156.47164445   161.68458023
 C     22  21  17     2.752781895969   119.84049257   334.62456814
 S     26  22  21     3.365584804308   122.26454141   179.67588177
 C     13  12  11     2.774064652157   119.46975950   175.05345256
 C     28  13  12     2.613544061016   128.43553956   223.22933409
 N     26  22  21     2.501280652268   124.54898134   359.59387449
 H     23  22  21     2.046788834727   126.55890549   180.00347733
 H     29  28  13     2.055601658151   124.06831596   358.44862192
 C     25  21  17     8.215031530844   122.86670795   106.10669677
 C     33  25  21     2.589055561609    57.77289498     0.00000000
 C     34  33  25     2.699196660126   122.05925029     0.00000000
 C     35  34  33     2.612588492318   122.09676203     0.00000000
 C     36  35  34     2.748431279367   118.01389674     0.00000000
 C     33  25  21     2.722571266499    61.46430989   180.01380397
 N     37  36  35     2.493500181645   122.52161855   179.99716088
 S     39  37  36     3.575566524034   106.04198886   179.99957735
 N     38  33  25     2.501344466789   123.25537705   179.99971460
 H     34  33  25     2.054381420319   119.68622245   180.00003146
 H     35  34  33     2.053529701278   119.09359453   179.99823755
 H     10   8   7     2.052713580190   121.32232939   180.06398883
 H     33  25  21     2.052764283610   178.90379456     0.00000000

---------------------
BASIS SET INFORMATION
---------------------
There are 4 groups of distinct atoms

 Group   1 Type C   : 11s6p2d1f contracted to 5s3p2d1f pattern {62111/411/11/1}
 Group   2 Type N   : 11s6p2d1f contracted to 5s3p2d1f pattern {62111/411/11/1}
 Group   3 Type H   : 5s1p contracted to 3s1p pattern {311/1}
 Group   4 Type S   : 14s9p3d1f contracted to 5s5p2d1f pattern {73211/51111/21/1}

Atom   0C    basis set group =>   1
Atom   1C    basis set group =>   1
Atom   2C    basis set group =>   1
Atom   3C    basis set group =>   1
Atom   4C    basis set group =>   1
Atom   5C    basis set group =>   1
Atom   6C    basis set group =>   1
Atom   7C    basis set group =>   1
Atom   8N    basis set group =>   2
Atom   9C    basis set group =>   1
Atom  10C    basis set group =>   1
Atom  11C    basis set group =>   1
Atom  12C    basis set group =>   1
Atom  13H    basis set group =>   3
Atom  14H    basis set group =>   3
Atom  15H    basis set group =>   3
Atom  16H    basis set group =>   3
Atom  17H    basis set group =>   3
Atom  18H    basis set group =>   3
Atom  19H    basis set group =>   3
Atom  20N    basis set group =>   2
Atom  21C    basis set group =>   1
Atom  22C    basis set group =>   1
Atom  23S    basis set group =>   4
Atom  24C    basis set group =>   1
Atom  25C    basis set group =>   1
Atom  26S    basis set group =>   4
Atom  27C    basis set group =>   1
Atom  28C    basis set group =>   1
Atom  29N    basis set group =>   2
Atom  30H    basis set group =>   3
Atom  31H    basis set group =>   3
Atom  32C    basis set group =>   1
Atom  33C    basis set group =>   1
Atom  34C    basis set group =>   1
Atom  35C    basis set group =>   1
Atom  36C    basis set group =>   1
Atom  37C    basis set group =>   1
Atom  38N    basis set group =>   2
Atom  39S    basis set group =>   4
Atom  40N    basis set group =>   2
Atom  41H    basis set group =>   3
Atom  42H    basis set group =>   3
Atom  43H    basis set group =>   3
Atom  44H    basis set group =>   3
-------------------------------
AUXILIARY BASIS SET INFORMATION
-------------------------------
There are 4 groups of distinct atoms

 Group   1 Type C   : 12s5p4d2f1g contracted to 6s4p3d1f1g pattern {711111/2111/211/2/1}
 Group   2 Type N   : 12s5p4d2f1g contracted to 6s4p3d1f1g pattern {711111/2111/211/2/1}
 Group   3 Type H   : 5s2p1d contracted to 3s1p1d pattern {311/2/1}
 Group   4 Type S   : 14s5p5d2f1g contracted to 8s4p3d1f1g pattern {71111111/2111/311/2/1}

Atom   0C    basis set group =>   1
Atom   1C    basis set group =>   1
Atom   2C    basis set group =>   1
Atom   3C    basis set group =>   1
Atom   4C    basis set group =>   1
Atom   5C    basis set group =>   1
Atom   6C    basis set group =>   1
Atom   7C    basis set group =>   1
Atom   8N    basis set group =>   2
Atom   9C    basis set group =>   1
Atom  10C    basis set group =>   1
Atom  11C    basis set group =>   1
Atom  12C    basis set group =>   1
Atom  13H    basis set group =>   3
Atom  14H    basis set group =>   3
Atom  15H    basis set group =>   3
Atom  16H    basis set group =>   3
Atom  17H    basis set group =>   3
Atom  18H    basis set group =>   3
Atom  19H    basis set group =>   3
Atom  20N    basis set group =>   2
Atom  21C    basis set group =>   1
Atom  22C    basis set group =>   1
Atom  23S    basis set group =>   4
Atom  24C    basis set group =>   1
Atom  25C    basis set group =>   1
Atom  26S    basis set group =>   4
Atom  27C    basis set group =>   1
Atom  28C    basis set group =>   1
Atom  29N    basis set group =>   2
Atom  30H    basis set group =>   3
Atom  31H    basis set group =>   3
Atom  32C    basis set group =>   1
Atom  33C    basis set group =>   1
Atom  34C    basis set group =>   1
Atom  35C    basis set group =>   1
Atom  36C    basis set group =>   1
Atom  37C    basis set group =>   1
Atom  38N    basis set group =>   2
Atom  39S    basis set group =>   4
Atom  40N    basis set group =>   2
Atom  41H    basis set group =>   3
Atom  42H    basis set group =>   3
Atom  43H    basis set group =>   3
Atom  44H    basis set group =>   3
-------------------------
ECP PARAMETER INFORMATION
-------------------------



--------------------------------------------------------------------------
[[7639,1],1]: A high-performance Open MPI point-to-point messaging module
was unable to find any relevant network interfaces:

Module: OpenFabrics (openib)
  Host: cx1-136-9-3

Another transport will be used instead, although this may result in
lower performance.
--------------------------------------------------------------------------


           ************************************************************
           *        Program running with 24 parallel MPI-processes    *
           *              working on a common directory               *
           ************************************************************
------------------------------------------------------------------------------
                           ORCA GTO INTEGRAL CALCULATION
                           -- RI-GTO INTEGRALS CHOSEN --
------------------------------------------------------------------------------

                         BASIS SET STATISTICS AND STARTUP INFO

Gaussian basis set:
 # of primitive gaussian shells          ...  739
 # of primitive gaussian functions       ... 1627
 # of contracted shells                  ...  410
 # of contracted basis functions         ... 1088
 Highest angular momentum                ...    3
 Maximum contraction depth               ...    7
Auxiliary gaussian basis set:
 # of primitive gaussian shells          ...  881
 # of primitive gaussian functions       ... 2469
 # of contracted shells                  ...  551
 # of contracted aux-basis functions     ... 1717
 Highest angular momentum                ...    4
 Maximum contraction depth               ...    7
Ratio of auxiliary to basis functions    ...  1.58
Integral package used                  ... LIBINT
 One Electron integrals                  
   ECP integrals                         ... done
 Ordering auxiliary basis shells         ... done
 Integral threshhold             Thresh  ...  2.500e-11
 Primitive cut-off               TCut    ...  2.500e-12
 Pre-screening matrix                    ... done
 Shell pair data                         ... 
 Ordering of the shell pairs             ... done (   0.017 sec) 43515 of 84255 pairs
 Determination of significant pairs      ... done (   0.000 sec)
 Creation of shell pair data             ... done (   0.009 sec)
 Storage of shell pair data              ... done (   0.110 sec)
 Shell pair data done in (   0.136 sec)
 Computing two index integrals           ... done
 Cholesky decomposition of the V-matrix  ... done


Timings:
 Total evaluation time                   ...   5.223 sec (  0.087 min)
 One electron matrix time                ...   1.475 sec (  0.025 min) = 28.2%
 Schwartz matrix evaluation time         ...   2.294 sec (  0.038 min) = 43.9%
 Two index repulsion integral time       ...   0.725 sec (  0.012 min) = 13.9%
 Cholesky decomposition of V             ...   0.544 sec (  0.009 min) = 10.4%
 Three index repulsion integral time     ...   0.000 sec (  0.000 min) =  0.0%

--------------------------------------------------------------------------
[[7557,1],0]: A high-performance Open MPI point-to-point messaging module
was unable to find any relevant network interfaces:

Module: OpenFabrics (openib)
  Host: cx1-136-9-3

Another transport will be used instead, although this may result in
lower performance.
--------------------------------------------------------------------------


           ************************************************************
           *        Program running with 24 parallel MPI-processes    *
           *              working on a common directory               *
           ************************************************************
-------------------------------------------------------------------------------
                                 ORCA SCF
-------------------------------------------------------------------------------

------------
SCF SETTINGS
------------
Hamiltonian:
 Density Functional     Method          .... DFT(GTOs)
 Exchange Functional    Exchange        .... WB97X-D3
 Correlation Functional Correlation     .... WB97X-D3
 Gradients option       PostSCFGGA      .... off
 Hybrid DFT is turned on
   Fraction HF Exchange ScalHFX         ....  0.195728
   Scaling of DF-GGA-X  ScalDFX         ....  0.000000
   Scaling of DF-GGA-C  ScalDFC         ....  1.000000
   Scaling of DF-LDA-C  ScalLDAC        ....  1.000000
   Perturbative correction              ....  0.000000
 Long-range corrected/Screened/Range-Separated Hybrid DFT is turned on
   Amount of maximum screened exact exchange              ....  0.804272
   Range separation parameter mu (erf(mu*r12)/r12)        ....  0.250000
 RI-approximation to the Coulomb term is turned on
   Number of auxiliary basis functions  .... 1717
   RIJ-COSX (HFX calculated with COS-X)).... on


General Settings:
 Integral files         IntName         .... total
 Hartree-Fock type      HFTyp           .... RHF
 Total Charge           Charge          ....    0
 Multiplicity           Mult            ....    1
 Number of Electrons    NEL             ....  240
 Basis Dimension        Dim             .... 1088
 Nuclear Repulsion      ENuc            ....   3169.8156636539 Eh

Convergence Acceleration:
 DIIS                   CNVDIIS         .... on
   Start iteration      DIISMaxIt       ....    12
   Startup error        DIISStart       ....  0.200000
   # of expansion vecs  DIISMaxEq       ....     5
   Bias factor          DIISBfac        ....   1.050
   Max. coefficient     DIISMaxC        ....  10.000
 Newton-Raphson         CNVNR           .... off
 SOSCF                  CNVSOSCF        .... on
   Start iteration      SOSCFMaxIt      ....   150
   Startup grad/error   SOSCFStart      ....  0.003300
 Level Shifting         CNVShift        .... on
   Level shift para.    LevelShift      ....    0.2500
   Turn off err/grad.   ShiftErr        ....    0.0010
 Zerner damping         CNVZerner       .... off
 Static damping         CNVDamp         .... on
   Fraction old density DampFac         ....    0.7000
   Max. Damping (<1)    DampMax         ....    0.9800
   Min. Damping (>=0)   DampMin         ....    0.0000
   Turn off err/grad.   DampErr         ....    0.1000
 Fernandez-Rico         CNVRico         .... off

SCF Procedure:
 Maximum # iterations   MaxIter         ....   125
 SCF integral mode      SCFMode         .... Direct
   Integral package                     .... LIBINT
 Reset frequeny         DirectResetFreq ....    20
 Integral Threshold     Thresh          ....  2.500e-11 Eh
 Primitive CutOff       TCut            ....  2.500e-12 Eh

Convergence Tolerance:
 Convergence Check Mode ConvCheckMode   .... Total+1el-Energy
 Convergence forced     ConvForced      .... 1
 Energy Change          TolE            ....  1.000e-08 Eh
 1-El. energy change                    ....  1.000e-05 Eh
 Orbital Gradient       TolG            ....  1.000e-05
 Orbital Rotation angle TolX            ....  1.000e-05
 DIIS Error             TolErr          ....  5.000e-07


Diagonalization of the overlap matrix:
Smallest eigenvalue                        ... 6.207e-06
Time for diagonalization                   ...    0.389 sec
Threshold for overlap eigenvalues          ... 1.000e-08
Number of eigenvalues below threshold      ... 0
Time for construction of square roots      ...    0.347 sec
Total time needed                          ...    0.742 sec

-------------------
DFT GRID GENERATION
-------------------

General Integration Accuracy     IntAcc      ...  5.010
Radial Grid Type                 RadialGrid  ... Gauss-Chebyshev
Angular Grid (max. acc.)         AngularGrid ... Lebedev-434
Angular grid pruning method      GridPruning ... 3 (G Style)
Weight generation scheme         WeightScheme... Becke
Basis function cutoff            BFCut       ...    1.0000e-11
Integration weight cutoff        WCut        ...    1.0000e-14
Grids for H and He will be reduced by one unit

# of grid points (after initial pruning)     ... 431918 (   0.0 sec)
# of grid points (after weights+screening)   ... 380234 (   1.3 sec)
nearest neighbour list constructed           ...    0.0 sec
Grid point re-assignment to atoms done       ...    0.2 sec
Grid point division into batches done        ...    4.3 sec
Reduced shell lists constructed in    5.0 sec

Total number of grid points                  ...   380234
Total number of batches                      ...     5966
Average number of points per batch           ...       63
Average number of grid points per atom       ...     8450
Average number of shells per batch           ...   139.21 (33.95%)
Average number of basis functions per batch  ...   359.60 (33.05%)
Average number of large shells per batch     ...    94.34 (67.77%)
Average number of large basis fcns per batch ...   243.77 (67.79%)
Maximum spatial batch extension              ...  11.30, 23.33, 14.24 au
Average spatial batch extension              ...   0.05,  0.06,  0.05 au

Time for grid setup =    7.450 sec

------------------------------
INITIAL GUESS: MODEL POTENTIAL
------------------------------
Loading Hartree-Fock densities                     ... done
Calculating cut-offs                               ... done
Setting up the integral package                    ... done
Initializing the effective Hamiltonian             ... done
Starting the Coulomb interaction                   ... done (   0.4 sec)
Reading the grid                                   ... done
Mapping shells                                     ... done
Starting the XC term evaluation                    ... done (   2.2 sec)
  promolecular density results
     # of electrons  =    239.993660497
     EX              =   -233.894496847
     EC              =     -8.371024687
     EX+EC           =   -242.265521534
Transforming the Hamiltonian                       ... done (   0.2 sec)
Diagonalizing the Hamiltonian                      ... done (   0.4 sec)
Back transforming the eigenvectors                 ... done (   0.1 sec)
Now organizing SCF variables                       ... done
                      ------------------
                      INITIAL GUESS DONE (  11.0 sec)
                      ------------------
--------------------
COSX GRID GENERATION
--------------------

General Integration Accuracy     IntAcc      ...  3.340
Radial Grid Type                 RadialGrid  ... Gauss-Chebyshev
Angular Grid (max. acc.)         AngularGrid ... Lebedev-50
Angular grid pruning method      GridPruning ... 3 (G Style)
Weight generation scheme         WeightScheme... Becke
Basis function cutoff            BFCut       ...    1.0000e-11
Integration weight cutoff        WCut        ...    1.0000e-14
Grids for H and He will be reduced by one unit

# of grid points (after initial pruning)     ...  23028 (   0.0 sec)
# of grid points (after weights+screening)   ...  21063 (   0.1 sec)
nearest neighbour list constructed           ...    0.0 sec
Grid point re-assignment to atoms done       ...    0.0 sec
Grid point division into batches done        ...    0.0 sec
Reduced shell lists constructed in    0.1 sec

Total number of grid points                  ...    21063
Total number of batches                      ...      351
Average number of points per batch           ...       60
Average number of grid points per atom       ...      468
Average number of shells per batch           ...   151.75 (37.01%)
Average number of basis functions per batch  ...   394.62 (36.27%)
Average number of large shells per batch     ...   102.62 (67.63%)
Average number of large basis fcns per batch ...   269.00 (68.17%)
Maximum spatial batch extension              ...   9.21, 18.10, 11.90 au
Average spatial batch extension              ...   0.13,  0.19,  0.13 au

Overlap Fitting                  UseSFitting ... on
Constructing numerical overlap ... done (      0.1 sec)
Inverting numerical overlap    ... done (      0.1 sec)
Obtaining analytic overlap     ... done (      0.0 sec)
Final contraction and storage  ... done (      0.5 sec)


General Integration Accuracy     IntAcc      ...  3.670
Radial Grid Type                 RadialGrid  ... Gauss-Chebyshev
Angular Grid (max. acc.)         AngularGrid ... Lebedev-50
Angular grid pruning method      GridPruning ... 3 (G Style)
Weight generation scheme         WeightScheme... Becke
Basis function cutoff            BFCut       ...    1.0000e-11
Integration weight cutoff        WCut        ...    1.0000e-14
Grids for H and He will be reduced by one unit

# of grid points (after initial pruning)     ...  28752 (   0.0 sec)
# of grid points (after weights+screening)   ...  26206 (   0.1 sec)
nearest neighbour list constructed           ...    0.0 sec
Grid point re-assignment to atoms done       ...    0.0 sec
Grid point division into batches done        ...    0.0 sec
Reduced shell lists constructed in    0.1 sec

Total number of grid points                  ...    26206
Total number of batches                      ...      433
Average number of points per batch           ...       60
Average number of grid points per atom       ...      582
Average number of shells per batch           ...   155.70 (37.98%)
Average number of basis functions per batch  ...   408.40 (37.54%)
Average number of large shells per batch     ...   106.75 (68.56%)
Average number of large basis fcns per batch ...   280.45 (68.67%)
Maximum spatial batch extension              ...   4.98, 18.10,  3.66 au
Average spatial batch extension              ...   0.11,  0.17,  0.10 au

Overlap Fitting                  UseSFitting ... on
Constructing numerical overlap ... done (      0.1 sec)
Inverting numerical overlap    ... done (      0.1 sec)
Obtaining analytic overlap     ... done (      0.0 sec)
Final contraction and storage  ... done (      0.5 sec)


General Integration Accuracy     IntAcc      ...  4.010
Radial Grid Type                 RadialGrid  ... Gauss-Chebyshev
Angular Grid (max. acc.)         AngularGrid ... Lebedev-110
Angular grid pruning method      GridPruning ... 3 (G Style)
Weight generation scheme         WeightScheme... Becke
Basis function cutoff            BFCut       ...    1.0000e-11
Integration weight cutoff        WCut        ...    1.0000e-14
Grids for H and He will be reduced by one unit

# of grid points (after initial pruning)     ...  56152 (   0.0 sec)
# of grid points (after weights+screening)   ...  50769 (   0.1 sec)
nearest neighbour list constructed           ...    0.0 sec
Grid point re-assignment to atoms done       ...    0.0 sec
Grid point division into batches done        ...    0.1 sec
Reduced shell lists constructed in    0.2 sec

Total number of grid points                  ...    50769
Total number of batches                      ...      814
Average number of points per batch           ...       62
Average number of grid points per atom       ...     1128
Average number of shells per batch           ...   149.97 (36.58%)
Average number of basis functions per batch  ...   390.89 (35.93%)
Average number of large shells per batch     ...   103.09 (68.74%)
Average number of large basis fcns per batch ...   270.00 (69.07%)
Maximum spatial batch extension              ...   5.21, 19.31,  5.07 au
Average spatial batch extension              ...   0.09,  0.16,  0.09 au

Overlap Fitting                  UseSFitting ... on
Constructing numerical overlap ... done (      0.2 sec)
Inverting numerical overlap    ... done (      0.2 sec)
Obtaining analytic overlap     ... done (      0.0 sec)
Final contraction and storage  ... done (      0.5 sec)

Time for X-Grid setup             =    3.479 sec
--------------
SCF ITERATIONS
--------------
ITER       Energy         Delta-E        Max-DP      RMS-DP      [F,P]     Damp
               ***  Starting incremental Fock matrix formation  ***
  0  -2389.9164344959   0.000000000000 0.07508467  0.00066436  0.2562710 0.7000
  1  -2390.2796698597  -0.363235363843 0.04827942  0.00051668  0.1252712 0.7000
                               ***Turning on DIIS***
  2  -2390.4391263404  -0.159456480662 0.08978737  0.00102617  0.0554931 0.0000
  3  -2390.6848540397  -0.245727699334 0.07543342  0.00043322  0.0860514 0.0000
  4  -2390.7453973184  -0.060543278727 0.03161330  0.00017018  0.0107862 0.0000
  5  -2390.7485232137  -0.003125895250 0.01054769  0.00007846  0.0077062 0.0000
  6  -2390.7496423681  -0.001119154460 0.00503041  0.00004462  0.0049424 0.0000
  7  -2390.7501658375  -0.000523469401 0.00280025  0.00002675  0.0026700 0.0000
  8  -2390.7504205749  -0.000254737352 0.00182761  0.00001692  0.0025299 0.0000
                      *** Initiating the SOSCF procedure ***
                           *** Shutting down DIIS ***
                      *** Re-Reading the Fockian *** 
                      *** Removing any level shift *** 
ITER      Energy       Delta-E        Grad      Rot      Max-DP    RMS-DP
  9  -2390.75053431  -0.0001137342  0.002528  0.002528  0.001438  0.000011
               *** Restarting incremental Fock matrix formation ***
 10  -2390.75058390  -0.0000495938  0.001065  0.003538  0.029183  0.000136
 11  -2390.75059830  -0.0000143928  0.000347  0.004682  0.026181  0.000129
 12  -2390.75060264  -0.0000043453  0.000263  0.000838  0.022907  0.000112
 13  -2390.75060654  -0.0000038963  0.000100  0.000248  0.006184  0.000030
 14  -2390.75060682  -0.0000002878  0.000082  0.000146  0.004499  0.000022
 15  -2390.75060701  -0.0000001882  0.000008  0.000023  0.000212  0.000001
 16  -2390.75060694   0.0000000762  0.000007  0.000011  0.000163  0.000001
                  ***Gradient check signals convergence***
              ***Rediagonalizing the Fockian in SOSCF/NRSCF***

               *****************************************************
               *                     SUCCESS                       *
               *           SCF CONVERGED AFTER  17 CYCLES          *
               *****************************************************

Old exchange energy                            =    -72.112061780 Eh
New exchange energy                            =    -72.113142813 Eh
Exchange energy change after final integration =     -0.001081033 Eh
Total energy after final integration           =  -2390.751687993 Eh
Final COS-X integration done in                =    44.786 sec

----------------
TOTAL SCF ENERGY
----------------

Total Energy       :        -2390.75168799 Eh          -65055.66080 eV

Components:
Nuclear Repulsion  :         3169.81566365 Eh           86255.06933 eV
Electronic Energy  :        -5560.56735165 Eh         -151310.73013 eV
One Electron Energy:        -9577.26897129 Eh         -260610.73790 eV
Two Electron Energy:         4016.70161965 Eh          109300.00778 eV

Virial components:
Potential Energy   :        -4772.43275222 Eh         -129864.49737 eV
Kinetic Energy     :         2381.68106423 Eh           64808.83658 eV
Virial Ratio       :            2.00380850


DFT components:
N(Alpha)           :      119.999995168514 electrons
N(Beta)            :      119.999995168514 electrons
N(Total)           :      239.999990337028 electrons
E(XC)              :     -174.197996088354 Eh       

---------------
SCF CONVERGENCE
---------------

  Last Energy change         ...   -2.3432e-08  Tolerance :   1.0000e-08
  Last MAX-Density change    ...    3.5583e-14  Tolerance :   1.0000e-07
  Last RMS-Density change    ...    8.3959e-17  Tolerance :   5.0000e-09
  Last Orbital Gradient      ...    1.2948e-06  Tolerance :   1.0000e-05
  Last Orbital Rotation      ...    6.5648e-06  Tolerance :   1.0000e-05

             **** THE GBW FILE WAS UPDATED (total.gbw) ****
             **** DENSITY FILE WAS UPDATED (total.scfp.tmp) ****
             **** ENERGY FILE WAS UPDATED (total.en.tmp) ****
----------------
ORBITAL ENERGIES
----------------

  NO   OCC          E(Eh)            E(eV) 
   0   2.0000     -89.038170     -2422.8518 
   1   2.0000     -88.995575     -2421.6927 
   2   2.0000     -88.988536     -2421.5012 
   3   2.0000     -14.491186      -394.3252 
   4   2.0000     -14.489236      -394.2722 
   5   2.0000     -14.469869      -393.7452 
   6   2.0000     -14.435350      -392.8058 
   7   2.0000     -14.426997      -392.5785 
   8   2.0000     -10.367181      -282.1053 
   9   2.0000     -10.360581      -281.9257 
  10   2.0000     -10.359482      -281.8958 
  11   2.0000     -10.358493      -281.8689 
  12   2.0000     -10.337474      -281.2970 
  13   2.0000     -10.333292      -281.1832 
  14   2.0000     -10.330831      -281.1162 
  15   2.0000     -10.327646      -281.0295 
  16   2.0000     -10.327261      -281.0191 
  17   2.0000     -10.324441      -280.9423 
  18   2.0000     -10.319877      -280.8181 
  19   2.0000     -10.319087      -280.7966 
  20   2.0000     -10.318374      -280.7772 
  21   2.0000     -10.313105      -280.6339 
  22   2.0000     -10.312651      -280.6215 
  23   2.0000     -10.297197      -280.2010 
  24   2.0000     -10.291594      -280.0485 
  25   2.0000     -10.291362      -280.0422 
  26   2.0000     -10.290598      -280.0214 
  27   2.0000     -10.287707      -279.9427 
  28   2.0000     -10.285820      -279.8914 
  29   2.0000     -10.284879      -279.8658 
  30   2.0000     -10.284092      -279.8444 
  31   2.0000     -10.276176      -279.6290 
  32   2.0000      -8.126763      -221.1405 
  33   2.0000      -8.091126      -220.1707 
  34   2.0000      -8.085145      -220.0080 
  35   2.0000      -6.082731      -165.5195 
  36   2.0000      -6.076421      -165.3478 
  37   2.0000      -6.071711      -165.2196 
  38   2.0000      -6.044346      -164.4750 
  39   2.0000      -6.040012      -164.3571 
  40   2.0000      -6.038491      -164.3157 
  41   2.0000      -6.038193      -164.3076 
  42   2.0000      -6.034353      -164.2031 
  43   2.0000      -6.032327      -164.1480 
  44   2.0000      -1.106417       -30.1071 
  45   2.0000      -1.099888       -29.9295 
  46   2.0000      -1.089688       -29.6519 
  47   2.0000      -1.069815       -29.1111 
  48   2.0000      -1.012295       -27.5460 
  49   2.0000      -0.985581       -26.8190 
  50   2.0000      -0.979121       -26.6432 
  51   2.0000      -0.966760       -26.3069 
  52   2.0000      -0.923076       -25.1182 
  53   2.0000      -0.920467       -25.0472 
  54   2.0000      -0.911761       -24.8103 
  55   2.0000      -0.901103       -24.5203 
  56   2.0000      -0.883361       -24.0375 
  57   2.0000      -0.869404       -23.6577 
  58   2.0000      -0.867338       -23.6015 
  59   2.0000      -0.847297       -23.0561 
  60   2.0000      -0.840829       -22.8801 
  61   2.0000      -0.824377       -22.4324 
  62   2.0000      -0.780313       -21.2334 
  63   2.0000      -0.767937       -20.8966 
  64   2.0000      -0.751582       -20.4516 
  65   2.0000      -0.733732       -19.9659 
  66   2.0000      -0.720864       -19.6157 
  67   2.0000      -0.718057       -19.5393 
  68   2.0000      -0.713731       -19.4216 
  69   2.0000      -0.701593       -19.0913 
  70   2.0000      -0.679560       -18.4918 
  71   2.0000      -0.669675       -18.2228 
  72   2.0000      -0.645543       -17.5661 
  73   2.0000      -0.635054       -17.2807 
  74   2.0000      -0.621592       -16.9144 
  75   2.0000      -0.614566       -16.7232 
  76   2.0000      -0.611875       -16.6500 
  77   2.0000      -0.606761       -16.5108 
  78   2.0000      -0.599510       -16.3135 
  79   2.0000      -0.582952       -15.8629 
  80   2.0000      -0.571584       -15.5536 
  81   2.0000      -0.563432       -15.3318 
  82   2.0000      -0.558628       -15.2010 
  83   2.0000      -0.557709       -15.1760 
  84   2.0000      -0.549040       -14.9401 
  85   2.0000      -0.541606       -14.7378 
  86   2.0000      -0.538330       -14.6487 
  87   2.0000      -0.533246       -14.5104 
  88   2.0000      -0.530081       -14.4242 
  89   2.0000      -0.528024       -14.3683 
  90   2.0000      -0.521918       -14.2021 
  91   2.0000      -0.511389       -13.9156 
  92   2.0000      -0.506530       -13.7834 
  93   2.0000      -0.503726       -13.7071 
  94   2.0000      -0.492814       -13.4102 
  95   2.0000      -0.485982       -13.2243 
  96   2.0000      -0.475855       -12.9487 
  97   2.0000      -0.470435       -12.8012 
  98   2.0000      -0.470244       -12.7960 
  99   2.0000      -0.465631       -12.6705 
 100   2.0000      -0.458176       -12.4676 
 101   2.0000      -0.452001       -12.2996 
 102   2.0000      -0.446899       -12.1607 
 103   2.0000      -0.443995       -12.0817 
 104   2.0000      -0.438401       -11.9295 
 105   2.0000      -0.434034       -11.8107 
 106   2.0000      -0.413885       -11.2624 
 107   2.0000      -0.399069       -10.8592 
 108   2.0000      -0.393163       -10.6985 
 109   2.0000      -0.385660       -10.4943 
 110   2.0000      -0.381385       -10.3780 
 111   2.0000      -0.378155       -10.2901 
 112   2.0000      -0.369319       -10.0497 
 113   2.0000      -0.363852        -9.9009 
 114   2.0000      -0.359952        -9.7948 
 115   2.0000      -0.350673        -9.5423 
 116   2.0000      -0.326078        -8.8730 
 117   2.0000      -0.305503        -8.3132 
 118   2.0000      -0.296901        -8.0791 
 119   2.0000      -0.280176        -7.6240 
 120   0.0000      -0.058995        -1.6053 
 121   0.0000      -0.004494        -0.1223 
 122   0.0000       0.012162         0.3309 
 123   0.0000       0.019124         0.5204 
 124   0.0000       0.032409         0.8819 
 125   0.0000       0.057010         1.5513 
 126   0.0000       0.063543         1.7291 
 127   0.0000       0.069426         1.8892 
 128   0.0000       0.080253         2.1838 
 129   0.0000       0.087033         2.3683 
 130   0.0000       0.100250         2.7279 
 131   0.0000       0.104707         2.8492 
 132   0.0000       0.110030         2.9941 
 133   0.0000       0.111258         3.0275 
 134   0.0000       0.117890         3.2079 
 135   0.0000       0.130432         3.5492 
 136   0.0000       0.133307         3.6275 
 137   0.0000       0.137670         3.7462 
 138   0.0000       0.146156         3.9771 
 139   0.0000       0.149859         4.0779 
 140   0.0000       0.156015         4.2454 
 141   0.0000       0.160436         4.3657 
 142   0.0000       0.163944         4.4611 
 143   0.0000       0.168181         4.5764 
 144   0.0000       0.169978         4.6253 
 145   0.0000       0.176649         4.8069 
 146   0.0000       0.181682         4.9438 
 147   0.0000       0.186561         5.0766 
 148   0.0000       0.187756         5.1091 
 149   0.0000       0.190407         5.1812 
 150   0.0000       0.194106         5.2819 
 151   0.0000       0.201611         5.4861 
 152   0.0000       0.210087         5.7168 
 153   0.0000       0.216710         5.8970 
 154   0.0000       0.223658         6.0860 
 155   0.0000       0.225404         6.1335 
 156   0.0000       0.226528         6.1641 
 157   0.0000       0.231094         6.2884 
 158   0.0000       0.239918         6.5285 
 159   0.0000       0.244278         6.6472 
 160   0.0000       0.249602         6.7920 
 161   0.0000       0.256745         6.9864 
 162   0.0000       0.260375         7.0852 
 163   0.0000       0.263452         7.1689 
 164   0.0000       0.267937         7.2909 
 165   0.0000       0.271551         7.3893 
 166   0.0000       0.273363         7.4386 
 167   0.0000       0.274982         7.4826 
 168   0.0000       0.279136         7.5957 
 169   0.0000       0.285506         7.7690 
 170   0.0000       0.286068         7.7843 
 171   0.0000       0.288183         7.8419 
 172   0.0000       0.290877         7.9152 
 173   0.0000       0.293219         7.9789 
 174   0.0000       0.294577         8.0159 
 175   0.0000       0.295595         8.0436 
 176   0.0000       0.300197         8.1688 
 177   0.0000       0.303631         8.2622 
 178   0.0000       0.305643         8.3170 
 179   0.0000       0.310194         8.4408 
 180   0.0000       0.315029         8.5724 
 181   0.0000       0.320621         8.7245 
 182   0.0000       0.322798         8.7838 
 183   0.0000       0.323221         8.7953 
 184   0.0000       0.324672         8.8348 
 185   0.0000       0.328968         8.9517 
 186   0.0000       0.332434         9.0460 
 187   0.0000       0.334073         9.0906 
 188   0.0000       0.342177         9.3111 
 189   0.0000       0.344389         9.3713 
 190   0.0000       0.350205         9.5296 
 191   0.0000       0.353017         9.6061 
 192   0.0000       0.355306         9.6684 
 193   0.0000       0.358194         9.7469 
 194   0.0000       0.360734         9.8161 
 195   0.0000       0.365518         9.9463 
 196   0.0000       0.367631        10.0037 
 197   0.0000       0.371172        10.1001 
 198   0.0000       0.374041        10.1782 
 199   0.0000       0.375658        10.2222 
 200   0.0000       0.377713        10.2781 
 201   0.0000       0.381463        10.3801 
 202   0.0000       0.385170        10.4810 
 203   0.0000       0.386701        10.5227 
 204   0.0000       0.388999        10.5852 
 205   0.0000       0.391012        10.6400 
 206   0.0000       0.398761        10.8508 
 207   0.0000       0.399686        10.8760 
 208   0.0000       0.403840        10.9890 
 209   0.0000       0.408313        11.1108 
 210   0.0000       0.411954        11.2098 
 211   0.0000       0.413556        11.2534 
 212   0.0000       0.417091        11.3496 
 213   0.0000       0.422175        11.4880 
 214   0.0000       0.423111        11.5134 
 215   0.0000       0.425169        11.5694 
 216   0.0000       0.430879        11.7248 
 217   0.0000       0.432761        11.7760 
 218   0.0000       0.435845        11.8600 
 219   0.0000       0.442205        12.0330 
 220   0.0000       0.443239        12.0611 
 221   0.0000       0.445814        12.1312 
 222   0.0000       0.449241        12.2245 
 223   0.0000       0.450979        12.2718 
 224   0.0000       0.453367        12.3367 
 225   0.0000       0.459396        12.5008 
 226   0.0000       0.461693        12.5633 
 227   0.0000       0.463858        12.6222 
 228   0.0000       0.469275        12.7696 
 229   0.0000       0.471978        12.8432 
 230   0.0000       0.474474        12.9111 
 231   0.0000       0.475000        12.9254 
 232   0.0000       0.477316        12.9884 
 233   0.0000       0.482242        13.1225 
 234   0.0000       0.483161        13.1475 
 235   0.0000       0.484172        13.1750 
 236   0.0000       0.486490        13.2381 
 237   0.0000       0.488720        13.2987 
 238   0.0000       0.491890        13.3850 
 239   0.0000       0.499876        13.6023 
 240   0.0000       0.501510        13.6468 
 241   0.0000       0.503733        13.7073 
 242   0.0000       0.506937        13.7945 
 243   0.0000       0.513249        13.9662 
 244   0.0000       0.513481        13.9725 
 245   0.0000       0.514346        13.9961 
 246   0.0000       0.519090        14.1252 
 247   0.0000       0.524451        14.2710 
 248   0.0000       0.527555        14.3555 
 249   0.0000       0.530586        14.4380 
 250   0.0000       0.536148        14.5893 
 251   0.0000       0.539799        14.6887 
 252   0.0000       0.540751        14.7146 
 253   0.0000       0.543213        14.7816 
 254   0.0000       0.545490        14.8435 
 255   0.0000       0.547701        14.9037 
 256   0.0000       0.549729        14.9589 
 257   0.0000       0.557314        15.1653 
 258   0.0000       0.560293        15.2463 
 259   0.0000       0.561498        15.2791 
 260   0.0000       0.567393        15.4396 
 261   0.0000       0.568882        15.4801 
 262   0.0000       0.570277        15.5180 
 263   0.0000       0.576646        15.6913 
 264   0.0000       0.580708        15.8019 
 265   0.0000       0.582514        15.8510 
 266   0.0000       0.591774        16.1030 
 267   0.0000       0.592800        16.1309 
 268   0.0000       0.594333        16.1726 
 269   0.0000       0.600526        16.3411 
 270   0.0000       0.608542        16.5593 
 271   0.0000       0.610291        16.6069 
 272   0.0000       0.616205        16.7678 
 273   0.0000       0.622487        16.9387 
 274   0.0000       0.634770        17.2730 
 275   0.0000       0.638046        17.3621 
 276   0.0000       0.641995        17.4696 
 277   0.0000       0.647078        17.6079 
 278   0.0000       0.653310        17.7775 
 279   0.0000       0.658478        17.9181 
 280   0.0000       0.660655        17.9773 
 281   0.0000       0.667182        18.1549 
 282   0.0000       0.670838        18.2544 
 283   0.0000       0.673056        18.3148 
 284   0.0000       0.681783        18.5523 
 285   0.0000       0.682603        18.5746 
 286   0.0000       0.683698        18.6044 
 287   0.0000       0.686201        18.6725 
 288   0.0000       0.692073        18.8323 
 289   0.0000       0.693539        18.8722 
 290   0.0000       0.699602        19.0371 
 291   0.0000       0.700495        19.0615 
 292   0.0000       0.703507        19.1434 
 293   0.0000       0.706634        19.2285 
 294   0.0000       0.706873        19.2350 
 295   0.0000       0.714867        19.4525 
 296   0.0000       0.718703        19.5569 
 297   0.0000       0.720959        19.6183 
 298   0.0000       0.723940        19.6994 
 299   0.0000       0.726347        19.7649 
 300   0.0000       0.728853        19.8331 
 301   0.0000       0.734939        19.9987 
 302   0.0000       0.737822        20.0772 
 303   0.0000       0.740220        20.1424 
 304   0.0000       0.743485        20.2313 
 305   0.0000       0.746491        20.3131 
 306   0.0000       0.750022        20.4091 
 307   0.0000       0.755353        20.5542 
 308   0.0000       0.760580        20.6964 
 309   0.0000       0.765939        20.8423 
 310   0.0000       0.773992        21.0614 
 311   0.0000       0.776131        21.1196 
 312   0.0000       0.779451        21.2099 
 313   0.0000       0.779855        21.2209 
 314   0.0000       0.786152        21.3923 
 315   0.0000       0.793554        21.5937 
 316   0.0000       0.794221        21.6118 
 317   0.0000       0.797742        21.7077 
 318   0.0000       0.799300        21.7500 
 319   0.0000       0.804190        21.8831 
 320   0.0000       0.808960        22.0129 
 321   0.0000       0.811006        22.0686 
 322   0.0000       0.811779        22.0896 
 323   0.0000       0.822214        22.3736 
 324   0.0000       0.825343        22.4587 
 325   0.0000       0.826802        22.4984 
 326   0.0000       0.830906        22.6101 
 327   0.0000       0.833450        22.6793 
 328   0.0000       0.838231        22.8094 
 329   0.0000       0.840435        22.8694 
 330   0.0000       0.841846        22.9078 
 331   0.0000       0.850552        23.1447 
 332   0.0000       0.852974        23.2106 
 333   0.0000       0.857268        23.3274 
 334   0.0000       0.859594        23.3907 
 335   0.0000       0.868536        23.6341 
 336   0.0000       0.873081        23.7577 
 337   0.0000       0.877868        23.8880 
 338   0.0000       0.880607        23.9625 
 339   0.0000       0.887530        24.1509 
 340   0.0000       0.894392        24.3376 
 341   0.0000       0.898560        24.4510 
 342   0.0000       0.905051        24.6277 
 343   0.0000       0.910909        24.7871 
 344   0.0000       0.916224        24.9317 
 345   0.0000       0.918542        24.9948 
 346   0.0000       0.925150        25.1746 
 347   0.0000       0.931167        25.3383 
 348   0.0000       0.932019        25.3615 
 349   0.0000       0.940771        25.5997 
 350   0.0000       0.943886        25.6845 
 351   0.0000       0.949607        25.8401 
 352   0.0000       0.953343        25.9418 
 353   0.0000       0.957570        26.0568 
 354   0.0000       0.960750        26.1433 
 355   0.0000       0.963707        26.2238 
 356   0.0000       0.970229        26.4013 
 357   0.0000       0.980090        26.6696 
 358   0.0000       0.981957        26.7204 
 359   0.0000       0.988947        26.9106 
 360   0.0000       0.996393        27.1132 
 361   0.0000       0.999346        27.1936 
 362   0.0000       1.008018        27.4296 
 363   0.0000       1.014657        27.6102 
 364   0.0000       1.020261        27.7627 
 365   0.0000       1.022262        27.8172 
 366   0.0000       1.037110        28.2212 
 367   0.0000       1.042490        28.3676 
 368   0.0000       1.046108        28.4661 
 369   0.0000       1.051528        28.6135 
 370   0.0000       1.060072        28.8460 
 371   0.0000       1.066163        29.0118 
 372   0.0000       1.071714        29.1628 
 373   0.0000       1.076299        29.2876 
 374   0.0000       1.084243        29.5038 
 375   0.0000       1.086987        29.5784 
 376   0.0000       1.090126        29.6638 
 377   0.0000       1.094232        29.7756 
 378   0.0000       1.101745        29.9800 
 379   0.0000       1.112335        30.2682 
 380   0.0000       1.115209        30.3464 
 381   0.0000       1.121517        30.5180 
 382   0.0000       1.126806        30.6619 
 383   0.0000       1.139083        30.9960 
 384   0.0000       1.140740        31.0411 
 385   0.0000       1.148125        31.2421 
 386   0.0000       1.156749        31.4767 
 387   0.0000       1.163655        31.6647 
 388   0.0000       1.170555        31.8524 
 389   0.0000       1.172876        31.9156 
 390   0.0000       1.178930        32.0803 
 391   0.0000       1.187515        32.3139 
 392   0.0000       1.189804        32.3762 
 393   0.0000       1.196560        32.5601 
 394   0.0000       1.202162        32.7125 
 395   0.0000       1.211915        32.9779 
 396   0.0000       1.223007        33.2797 
 397   0.0000       1.227299        33.3965 
 398   0.0000       1.232122        33.5277 
 399   0.0000       1.233975        33.5782 
 400   0.0000       1.248258        33.9668 
 401   0.0000       1.250096        34.0168 
 402   0.0000       1.252689        34.0874 
 403   0.0000       1.258758        34.2525 
 404   0.0000       1.270123        34.5618 
 405   0.0000       1.279482        34.8165 
 406   0.0000       1.282767        34.9059 
 407   0.0000       1.290600        35.1190 
 408   0.0000       1.291769        35.1508 
 409   0.0000       1.306281        35.5457 
 410   0.0000       1.307935        35.5907 
 411   0.0000       1.313266        35.7358 
 412   0.0000       1.315997        35.8101 
 413   0.0000       1.320684        35.9376 
 414   0.0000       1.328467        36.1494 
 415   0.0000       1.334027        36.3007 
 416   0.0000       1.335047        36.3285 
 417   0.0000       1.339239        36.4425 
 418   0.0000       1.353899        36.8415 
 419   0.0000       1.357530        36.9403 
 420   0.0000       1.364359        37.1261 
 421   0.0000       1.366768        37.1916 
 422   0.0000       1.367377        37.2082 
 423   0.0000       1.372589        37.3501 
 424   0.0000       1.379234        37.5309 
 425   0.0000       1.385949        37.7136 
 426   0.0000       1.389462        37.8092 
 427   0.0000       1.393353        37.9151 
 428   0.0000       1.397847        38.0374 
 429   0.0000       1.404160        38.2091 
 430   0.0000       1.412140        38.4263 
 431   0.0000       1.417134        38.5622 
 432   0.0000       1.430723        38.9319 
 433   0.0000       1.434377        39.0314 
 434   0.0000       1.444171        39.2979 
 435   0.0000       1.446714        39.3671 
 436   0.0000       1.451140        39.4875 
 437   0.0000       1.454188        39.5705 
 438   0.0000       1.461286        39.7636 
 439   0.0000       1.469513        39.9875 
 440   0.0000       1.476670        40.1822 
 441   0.0000       1.493930        40.6519 
 442   0.0000       1.496261        40.7153 
 443   0.0000       1.499002        40.7899 
 444   0.0000       1.505295        40.9611 
 445   0.0000       1.507649        41.0252 
 446   0.0000       1.514949        41.2239 
 447   0.0000       1.519336        41.3432 
 448   0.0000       1.529785        41.6276 
 449   0.0000       1.531632        41.6778 
 450   0.0000       1.537941        41.8495 
 451   0.0000       1.542310        41.9684 
 452   0.0000       1.542637        41.9773 
 453   0.0000       1.543847        42.0102 
 454   0.0000       1.548026        42.1239 
 455   0.0000       1.553859        42.2826 
 456   0.0000       1.559367        42.4325 
 457   0.0000       1.563208        42.5371 
 458   0.0000       1.565950        42.6117 
 459   0.0000       1.568011        42.6678 
 460   0.0000       1.571055        42.7506 
 461   0.0000       1.572205        42.7819 
 462   0.0000       1.574631        42.8479 
 463   0.0000       1.578820        42.9619 
 464   0.0000       1.584044        43.1040 
 465   0.0000       1.594800        43.3967 
 466   0.0000       1.599226        43.5172 
 467   0.0000       1.601230        43.5717 
 468   0.0000       1.602364        43.6025 
 469   0.0000       1.607842        43.7516 
 470   0.0000       1.615739        43.9665 
 471   0.0000       1.620060        44.0841 
 472   0.0000       1.623766        44.1849 
 473   0.0000       1.625255        44.2254 
 474   0.0000       1.627288        44.2807 
 475   0.0000       1.629306        44.3357 
 476   0.0000       1.636294        44.5258 
 477   0.0000       1.642355        44.6907 
 478   0.0000       1.646756        44.8105 
 479   0.0000       1.653586        44.9964 
 480   0.0000       1.657033        45.0902 
 481   0.0000       1.659104        45.1465 
 482   0.0000       1.663586        45.2685 
 483   0.0000       1.669482        45.4289 
 484   0.0000       1.673251        45.5315 
 485   0.0000       1.681097        45.7450 
 486   0.0000       1.683452        45.8091 
 487   0.0000       1.687257        45.9126 
 488   0.0000       1.693259        46.0759 
 489   0.0000       1.699198        46.2375 
 490   0.0000       1.700004        46.2595 
 491   0.0000       1.709685        46.5229 
 492   0.0000       1.710440        46.5434 
 493   0.0000       1.713575        46.6287 
 494   0.0000       1.716747        46.7151 
 495   0.0000       1.717668        46.7401 
 496   0.0000       1.728854        47.0445 
 497   0.0000       1.731195        47.1082 
 498   0.0000       1.733054        47.1588 
 499   0.0000       1.745967        47.5102 
 500   0.0000       1.746164        47.5155 
 501   0.0000       1.749577        47.6084 
 502   0.0000       1.757677        47.8288 
 503   0.0000       1.762394        47.9572 
 504   0.0000       1.763002        47.9737 
 505   0.0000       1.766901        48.0798 
 506   0.0000       1.769107        48.1398 
 507   0.0000       1.776654        48.3452 
 508   0.0000       1.783855        48.5412 
 509   0.0000       1.785152        48.5765 
 510   0.0000       1.788412        48.6652 
 511   0.0000       1.790282        48.7160 
 512   0.0000       1.795681        48.8630 
 513   0.0000       1.802120        49.0382 
 514   0.0000       1.806608        49.1603 
 515   0.0000       1.811749        49.3002 
 516   0.0000       1.816823        49.4383 
 517   0.0000       1.821537        49.5665 
 518   0.0000       1.827837        49.7380 
 519   0.0000       1.832977        49.8778 
 520   0.0000       1.834589        49.9217 
 521   0.0000       1.840585        50.0849 
 522   0.0000       1.841691        50.1150 
 523   0.0000       1.851929        50.3935 
 524   0.0000       1.860607        50.6297 
 525   0.0000       1.866189        50.7816 
 526   0.0000       1.870227        50.8915 
 527   0.0000       1.873429        50.9786 
 528   0.0000       1.878163        51.1074 
 529   0.0000       1.886188        51.3258 
 530   0.0000       1.888970        51.4015 
 531   0.0000       1.894501        51.5520 
 532   0.0000       1.906587        51.8809 
 533   0.0000       1.910612        51.9904 
 534   0.0000       1.919584        52.2345 
 535   0.0000       1.925922        52.4070 
 536   0.0000       1.932647        52.5900 
 537   0.0000       1.938553        52.7507 
 538   0.0000       1.943699        52.8908 
 539   0.0000       1.947726        53.0003 
 540   0.0000       1.953594        53.1600 
 541   0.0000       1.959113        53.3102 
 542   0.0000       1.965555        53.4855 
 543   0.0000       1.973290        53.6959 
 544   0.0000       1.978043        53.8253 
 545   0.0000       1.988066        54.0980 
 546   0.0000       1.990813        54.1728 
 547   0.0000       2.002134        54.4808 
 548   0.0000       2.007643        54.6307 
 549   0.0000       2.020183        54.9720 
 550   0.0000       2.022000        55.0214 
 551   0.0000       2.024306        55.0842 
 552   0.0000       2.027697        55.1764 
 553   0.0000       2.036309        55.4108 
 554   0.0000       2.041305        55.5467 
 555   0.0000       2.043890        55.6171 
 556   0.0000       2.048605        55.7454 
 557   0.0000       2.053893        55.8893 
 558   0.0000       2.057144        55.9777 
 559   0.0000       2.063552        56.1521 
 560   0.0000       2.066472        56.2315 
 561   0.0000       2.072655        56.3998 
 562   0.0000       2.073306        56.4175 
 563   0.0000       2.085991        56.7627 
 564   0.0000       2.099680        57.1352 
 565   0.0000       2.108835        57.3843 
 566   0.0000       2.114231        57.5311 
 567   0.0000       2.121207        57.7210 
 568   0.0000       2.129943        57.9587 
 569   0.0000       2.135852        58.1195 
 570   0.0000       2.136076        58.1256 
 571   0.0000       2.138230        58.1842 
 572   0.0000       2.149873        58.5010 
 573   0.0000       2.153514        58.6001 
 574   0.0000       2.161338        58.8130 
 575   0.0000       2.162917        58.8560 
 576   0.0000       2.168591        59.0104 
 577   0.0000       2.175146        59.1887 
 578   0.0000       2.179675        59.3120 
 579   0.0000       2.186182        59.4890 
 580   0.0000       2.190608        59.6095 
 581   0.0000       2.194605        59.7182 
 582   0.0000       2.201919        59.9173 
 583   0.0000       2.204826        59.9964 
 584   0.0000       2.213072        60.2208 
 585   0.0000       2.214254        60.2529 
 586   0.0000       2.223779        60.5121 
 587   0.0000       2.226488        60.5858 
 588   0.0000       2.230795        60.7030 
 589   0.0000       2.239092        60.9288 
 590   0.0000       2.245763        61.1103 
 591   0.0000       2.260351        61.5073 
 592   0.0000       2.262137        61.5559 
 593   0.0000       2.269921        61.7677 
 594   0.0000       2.273266        61.8587 
 595   0.0000       2.278483        62.0007 
 596   0.0000       2.286568        62.2207 
 597   0.0000       2.299046        62.5602 
 598   0.0000       2.302456        62.6530 
 599   0.0000       2.309996        62.8582 
 600   0.0000       2.315754        63.0149 
 601   0.0000       2.320267        63.1377 
 602   0.0000       2.324828        63.2618 
 603   0.0000       2.327457        63.3333 
 604   0.0000       2.329545        63.3901 
 605   0.0000       2.333580        63.4999 
 606   0.0000       2.344167        63.7880 
 607   0.0000       2.350915        63.9716 
 608   0.0000       2.360526        64.2332 
 609   0.0000       2.376482        64.6674 
 610   0.0000       2.381194        64.7956 
 611   0.0000       2.382962        64.8437 
 612   0.0000       2.387764        64.9744 
 613   0.0000       2.407031        65.4986 
 614   0.0000       2.413564        65.6764 
 615   0.0000       2.421451        65.8910 
 616   0.0000       2.428752        66.0897 
 617   0.0000       2.441022        66.4236 
 618   0.0000       2.445855        66.5551 
 619   0.0000       2.452477        66.7353 
 620   0.0000       2.457750        66.8788 
 621   0.0000       2.474040        67.3220 
 622   0.0000       2.479827        67.4795 
 623   0.0000       2.501787        68.0771 
 624   0.0000       2.508620        68.2630 
 625   0.0000       2.517242        68.4976 
 626   0.0000       2.518253        68.5252 
 627   0.0000       2.540238        69.1234 
 628   0.0000       2.543004        69.1986 
 629   0.0000       2.552917        69.4684 
 630   0.0000       2.560699        69.6802 
 631   0.0000       2.564678        69.7884 
 632   0.0000       2.578706        70.1702 
 633   0.0000       2.580309        70.2138 
 634   0.0000       2.594460        70.5988 
 635   0.0000       2.600847        70.7727 
 636   0.0000       2.619092        71.2691 
 637   0.0000       2.624879        71.4266 
 638   0.0000       2.639833        71.8335 
 639   0.0000       2.642784        71.9138 
 640   0.0000       2.643761        71.9404 
 641   0.0000       2.652366        72.1745 
 642   0.0000       2.662844        72.4597 
 643   0.0000       2.665449        72.5306 
 644   0.0000       2.670723        72.6741 
 645   0.0000       2.679330        72.9083 
 646   0.0000       2.689957        73.1974 
 647   0.0000       2.694144        73.3114 
 648   0.0000       2.698979        73.4430 
 649   0.0000       2.708842        73.7114 
 650   0.0000       2.710535        73.7574 
 651   0.0000       2.717075        73.9354 
 652   0.0000       2.721650        74.0599 
 653   0.0000       2.724348        74.1333 
 654   0.0000       2.731628        74.3314 
 655   0.0000       2.733824        74.3911 
 656   0.0000       2.739311        74.5404 
 657   0.0000       2.744317        74.6767 
 658   0.0000       2.746856        74.7457 
 659   0.0000       2.753419        74.9243 
 660   0.0000       2.758924        75.0741 
 661   0.0000       2.762300        75.1660 
 662   0.0000       2.776052        75.5402 
 663   0.0000       2.778846        75.6162 
 664   0.0000       2.780976        75.6742 
 665   0.0000       2.787266        75.8454 
 666   0.0000       2.788717        75.8849 
 667   0.0000       2.794080        76.0308 
 668   0.0000       2.801146        76.2231 
 669   0.0000       2.806245        76.3618 
 670   0.0000       2.815683        76.6186 
 671   0.0000       2.817245        76.6611 
 672   0.0000       2.823201        76.8232 
 673   0.0000       2.832178        77.0675 
 674   0.0000       2.833832        77.1125 
 675   0.0000       2.836825        77.1939 
 676   0.0000       2.842353        77.3444 
 677   0.0000       2.847513        77.4848 
 678   0.0000       2.859453        77.8097 
 679   0.0000       2.862826        77.9014 
 680   0.0000       2.866834        78.0105 
 681   0.0000       2.874563        78.2208 
 682   0.0000       2.880878        78.3927 
 683   0.0000       2.885647        78.5224 
 684   0.0000       2.887500        78.5729 
 685   0.0000       2.890863        78.6644 
 686   0.0000       2.895103        78.7798 
 687   0.0000       2.898010        78.8589 
 688   0.0000       2.905167        79.0536 
 689   0.0000       2.909443        79.1700 
 690   0.0000       2.911437        79.2242 
 691   0.0000       2.912972        79.2660 
 692   0.0000       2.917833        79.3983 
 693   0.0000       2.920466        79.4699 
 694   0.0000       2.932250        79.7906 
 695   0.0000       2.941492        80.0421 
 696   0.0000       2.950847        80.2966 
 697   0.0000       2.951954        80.3268 
 698   0.0000       2.953844        80.3782 
 699   0.0000       2.955926        80.4348 
 700   0.0000       2.963438        80.6392 
 701   0.0000       2.967361        80.7460 
 702   0.0000       2.978331        81.0445 
 703   0.0000       2.985745        81.2463 
 704   0.0000       2.992967        81.4428 
 705   0.0000       2.996533        81.5398 
 706   0.0000       2.999864        81.6304 
 707   0.0000       3.009750        81.8995 
 708   0.0000       3.010854        81.9295 
 709   0.0000       3.015488        82.0556 
 710   0.0000       3.017915        82.1216 
 711   0.0000       3.025578        82.3302 
 712   0.0000       3.037107        82.6439 
 713   0.0000       3.045183        82.8636 
 714   0.0000       3.049322        82.9763 
[...]
 158   8.767     141.4   0.016954   0.015353  -10.392177  -10.453647     0.08 (  69->  77)    0.06 (  72->  81)    0.04 (  62->  77)
 159   8.784     141.1   0.009402   0.009005  -3.616528  -3.558859     0.04 (  62->  79)    0.04 (  62->  78)    0.04 (  59->  79)
 160   8.800     140.9   0.216522   0.197598  -12.295162  -11.783506     0.09 (  54->  77)    0.06 (  65->  82)    0.05 (  63->  81)
 161   8.802     140.9   0.018157   0.015179   6.641555   8.817448     0.07 (  52->  77)    0.05 (  64->  85)    0.04 (  67->  85)
 162   8.814     140.7   0.035079   0.033367  -3.758422  -5.217890     0.06 (  52->  77)    0.04 (  65->  86)    0.03 (  56->  80)
 163   8.818     140.6   0.034801   0.031522  -9.210965  -8.651292     0.15 (  63->  81)    0.13 (  71->  81)    0.12 (  72->  81)
 164   8.827     140.5   0.006679   0.006844  10.509401  10.228835     0.08 (  63->  81)    0.06 (  71->  81)    0.05 (  72->  81)
 165   8.831     140.4   0.011292   0.010355  -8.879523  -7.262002     0.07 (  67->  91)    0.04 (  67->  92)    0.03 (  67->  94)
 166   8.852     140.1   0.000902   0.000812   4.036934   3.783313     0.28 (  59->  74)    0.04 (  64->  85)    0.04 (  47->  74)
 167   8.857     140.0   0.019459   0.018392  25.259792  25.096568     0.09 (  72-> 101)    0.08 (  65->  86)    0.04 (  71-> 103)
 168   8.865     139.9   0.016402   0.015954  11.335602  11.650894     0.14 (  58->  74)    0.03 (  37->  74)    0.02 (  63->  81)
 169   8.875     139.7   0.016832   0.014998  -5.146773  -5.133069     0.04 (  70->  80)    0.03 (  54->  77)    0.03 (  73->  87)
 170   8.893     139.4   0.005304   0.004373  -41.006811  -38.890342     0.06 (  64->  85)    0.04 (  52->  77)    0.03 (  67->  85)
 171   8.907     139.2   0.083728   0.075656  69.612204  69.311493     0.09 (  58->  74)    0.05 (  69->  84)    0.03 (  69->  83)
 172   8.917     139.0   0.012476   0.010729  -7.048794  -4.587720     0.06 (  71-> 100)    0.05 (  71->  80)    0.03 (  70->  80)
 173   8.942     138.7   0.050046   0.050070  22.502036  22.458070     0.04 (  67->  93)    0.03 (  67->  82)    0.03 (  65->  84)
 174   8.945     138.6   0.035938   0.033273   0.564343   1.157084     0.04 (  67->  91)    0.03 (  45->  75)    0.03 (  53->  78)
 175   8.964     138.3   0.067149   0.059446  -2.233590  -0.183621     0.12 (  59->  74)    0.09 (  58->  74)    0.05 (  48->  76)
 176   8.969     138.2   0.068948   0.065933  38.271989  32.136526     0.08 (  58->  74)    0.05 (  59->  74)    0.04 (  66->  84)
 177   8.980     138.1   0.014834   0.011347   5.750428   3.600861     0.06 (  68->  89)    0.06 (  68->  87)    0.04 (  62->  83)
 178   9.003     137.7   0.086984   0.080753  -38.264330  -37.158608     0.05 (  54->  77)    0.04 (  37->  74)    0.03 (  70->  88)
 179   9.019     137.5   0.004234   0.004450  -0.006162  -0.354065     0.03 (  71-> 101)    0.03 (  71->  95)    0.03 (  73-> 105)
 180   9.031     137.3   0.035282   0.037938  -21.807517  -19.061331     0.15 (  64->  92)    0.06 (  64->  93)    0.06 (  64->  91)
 181   9.034     137.2   0.010429   0.009979  -2.791228  -2.277630     0.05 (  73-> 106)    0.03 (  72-> 103)    0.03 (  70->  80)
 182   9.047     137.1   0.008496   0.006877  -41.439838  -38.270799     0.04 (  49->  77)    0.04 (  65->  84)    0.03 (  43->  74)
 183   9.068     136.7   0.008133   0.006550   0.211986   1.770929     0.03 (  68->  89)    0.03 (  68->  87)    0.02 (  70->  98)
 184   9.076     136.6   0.015228   0.012793  -12.379859  -12.372010     0.04 (  57->  79)    0.04 (  52->  75)    0.03 (  55->  74)
 185   9.080     136.5   0.053167   0.049956  -13.461471  -14.092023     0.04 (  43->  74)    0.04 (  49->  77)    0.04 (  57->  74)
 186   9.086     136.5   0.056922   0.051033  87.500523  85.433143     0.06 (  57->  74)    0.05 (  59->  74)    0.04 (  55->  74)
 187   9.096     136.3   0.071879   0.063107  40.795045  33.481199     0.07 (  73->  87)    0.04 (  71->  80)    0.03 (  55->  74)
 188   9.112     136.1   0.077507   0.067911  -123.356951  -114.059006     0.06 (  55->  74)    0.04 (  59->  74)    0.04 (  57->  79)
 189   9.117     136.0   0.009074   0.009188  23.095857  22.802674     0.08 (  63->  78)    0.04 (  63->  75)    0.03 (  57->  79)
 190   9.136     135.7   0.023493   0.020707  21.723320  18.280937     0.05 (  47->  75)    0.04 (  66->  91)    0.04 (  55->  78)
 191   9.153     135.5   0.019167   0.016250  -14.230150  -12.882463     0.03 (  72-> 107)    0.02 (  65->  86)    0.02 (  57->  79)
 192   9.170     135.2   0.004831   0.004455   9.321600   8.501573     0.15 (  68->  87)    0.09 (  68->  89)    0.08 (  71-> 104)
 193   9.186     135.0   0.012394   0.010424  13.403510  12.995067     0.13 (  57->  74)    0.03 (  60->  75)    0.03 (  68->  87)
 194   9.201     134.8   0.199017   0.171087  -44.482054  -38.876302     0.10 (  57->  74)    0.06 (  58->  74)    0.04 (  69->  88)
 195   9.208     134.6   0.004129   0.003045  13.411935  10.483477     0.10 (  65->  76)    0.09 (  57->  74)    0.05 (  62->  76)
 196   9.215     134.6   0.031455   0.026210  -1.340789  -3.839128     0.09 (  57->  74)    0.05 (  66->  91)    0.04 (  65->  76)
 197   9.231     134.3   0.060863   0.050416  -23.799974  -24.880908     0.07 (  65->  76)    0.04 (  55->  74)    0.03 (  62->  76)
 198   9.233     134.3   0.028544   0.023619  26.514872  24.252372     0.09 (  69->  88)    0.05 (  63->  78)    0.03 (  47->  75)
 199   9.247     134.1   0.008664   0.007385  -14.747996  -11.605834     0.09 (  60->  75)    0.06 (  57->  82)    0.05 (  57->  79)
 200   9.250     134.0   0.009755   0.008037  12.763533  11.120094     0.18 (  60->  75)    0.08 (  49->  77)    0.05 (  57->  74)
 201   9.263     133.8   0.011957   0.010171  -19.020820  -17.349051     0.39 (  68->  78)    0.04 (  68->  75)    0.03 (  68->  77)
 202   9.277     133.6   0.037398   0.033114  25.622289  24.236993     0.04 (  71-> 102)    0.03 (  68->  78)    0.03 (  73-> 112)
 203   9.284     133.6   0.006091   0.005860  -4.731019  -3.943319     0.10 (  67->  80)    0.08 (  60->  75)    0.05 (  64->  87)
 204   9.304     133.3   0.047541   0.039458  94.720037  85.494684     0.10 (  55->  79)    0.04 (  59->  84)    0.03 (  59->  75)
 205   9.308     133.2   0.004624   0.004251   9.144790   8.383691     0.03 (  72->  85)    0.03 (  57->  82)    0.03 (  70->  81)
 206   9.317     133.1   0.010742   0.009593   3.292898   3.030419     0.04 (  67->  80)    0.04 (  72->  85)    0.03 (  73->  85)
 207   9.322     133.0   0.010961   0.009942  -15.776466  -15.256679     0.07 (  72->  85)    0.04 (  58->  79)    0.03 (  72-> 107)
 208   9.332     132.9   0.010879   0.009418   8.703634   8.193774     0.06 (  73->  90)    0.05 (  68->  87)    0.05 (  73->  89)
 209   9.341     132.7   0.006957   0.006070  -5.758115  -4.663591     0.06 (  64->  80)    0.04 (  64->  87)    0.03 (  67->  80)
 210   9.353     132.6   0.016547   0.014884  -31.777920  -30.731978     0.06 (  68->  78)    0.04 (  70->  81)    0.03 (  73->  86)
 211   9.366     132.4   0.004308   0.003431  -4.240014  -3.793908     0.05 (  71-> 106)    0.04 (  73-> 106)    0.04 (  71-> 105)
 212   9.372     132.3   0.053408   0.046450   1.996003   1.070065     0.07 (  68->  78)    0.05 (  63->  85)    0.04 (  63->  78)
 213   9.383     132.1   0.005595   0.004625  -15.848080  -13.464608     0.09 (  61->  87)    0.06 (  64->  80)    0.04 (  67->  87)
 214   9.386     132.1   0.041107   0.034878   3.862604   2.998277     0.07 (  61->  87)    0.04 (  73-> 106)    0.03 (  53->  79)
 215   9.395     132.0   0.007274   0.005334  23.126708  20.808354     0.04 (  73->  89)    0.04 (  72->  85)    0.03 (  63->  80)
 216   9.409     131.8   0.004234   0.003934  23.470772  23.340360     0.05 (  72->  85)    0.03 (  71->  85)    0.03 (  63->  87)
 217   9.433     131.4   0.032437   0.026468  30.173159  25.674739     0.06 (  56->  75)    0.03 (  59->  75)    0.03 (  66->  80)
 218   9.437     131.4   0.011215   0.009401   6.226878   4.870605     0.08 (  64->  78)    0.06 (  64->  95)    0.04 (  64->  96)
 219   9.447     131.2   0.029193   0.024513  -30.435338  -26.946314     0.08 (  68->  92)    0.04 (  66->  80)    0.03 (  68->  96)
 220   9.450     131.2   0.040039   0.032459  30.526345  23.969417     0.07 (  64->  95)    0.07 (  64->  78)    0.06 (  61->  87)
 221   9.466     131.0   0.004902   0.004586  -12.039849  -11.523285     0.22 (  65->  77)    0.13 (  62->  77)    0.03 (  58->  82)
 222   9.469     130.9   0.021455   0.018741  -33.226857  -33.084284     0.04 (  64->  80)    0.03 (  68->  92)    0.03 (  65->  77)
 223   9.483     130.7   0.021562   0.017494  13.999646  11.099730     0.07 (  68->  87)    0.05 (  64->  80)    0.05 (  65->  77)
 224   9.486     130.7   0.009171   0.009026  11.188458  12.667838     0.12 (  68->  87)    0.08 (  65->  77)    0.06 (  68->  89)
 225   9.490     130.6   0.031810   0.025094  12.123231  10.251792     0.03 (  64->  80)    0.03 (  72-> 105)    0.03 (  71->  85)
 226   9.514     130.3   0.009899   0.009754  -12.032092  -10.509939     0.03 (  62->  84)    0.02 (  64->  80)    0.02 (  65->  86)
 227   9.519     130.2   0.002246   0.001629  -15.914258  -12.754831     0.03 (  71-> 105)    0.03 (  62->  86)    0.02 (  71->  94)
 228   9.531     130.1   0.005496   0.004700  21.940353  20.965046     0.13 (  49->  77)    0.12 (  48->  77)    0.06 (  53->  74)
 229   9.561     129.7   0.014856   0.012061  -8.359154  -7.809996     0.08 (  73-> 107)    0.07 (  71-> 107)    0.02 (  62->  86)
 230   9.564     129.6   0.044121   0.038088  27.929694  27.353470     0.05 (  66->  82)    0.05 (  72->  87)    0.05 (  66->  80)
 231   9.568     129.6   0.092704   0.082728  -3.574253  -2.979187     0.09 (  49->  76)    0.09 (  56->  81)    0.05 (  61->  87)
 232   9.587     129.3   0.010964   0.010201  -10.793110  -14.247043     0.07 (  31->  74)    0.06 (  46->  77)    0.05 (  43->  75)
 233   9.593     129.2   0.014230   0.013311  -37.761151  -36.703306     0.06 (  72->  87)    0.04 (  70->  82)    0.04 (  70->  84)
 234   9.606     129.1   0.017616   0.015654  36.283111  33.900942     0.06 (  66->  80)    0.03 (  66->  87)    0.03 (  73-> 112)
 235   9.623     128.8   0.002327   0.001679   6.847180   6.982967     0.14 (  61->  85)    0.07 (  52->  77)    0.05 (  43->  75)
 236   9.639     128.6   0.004241   0.003089   0.024901  -0.075083     0.06 (  69->  80)    0.04 (  71->  87)    0.03 (  56->  80)
 237   9.648     128.5   0.045677   0.042038  18.921226  17.102581     0.07 (  66->  85)    0.04 (  63->  85)    0.03 (  66->  94)
 238   9.653     128.4   0.007398   0.006253  -5.882104  -6.144748     0.13 (  72->  87)    0.04 (  73-> 108)    0.03 (  68->  87)
 239   9.669     128.2   0.001686   0.001403  -7.345710  -3.089776     0.04 (  66->  82)    0.03 (  66->  94)    0.03 (  66->  80)
 240   9.676     128.1   0.004152   0.003630  -7.840753  -7.369408     0.13 (  62->  76)    0.08 (  65->  76)    0.06 (  72->  87)
 241   9.684     128.0   0.007527   0.006279  31.264525  28.996881     0.11 (  49->  76)    0.05 (  48->  80)    0.04 (  48->  76)
 242   9.692     127.9   0.009129   0.007011  11.256834  11.831663     0.03 (  69->  96)    0.03 (  70-> 102)    0.02 (  73-> 112)
 243   9.698     127.8   0.019670   0.015791  13.529206  14.093607     0.13 (  62->  76)    0.09 (  65->  76)    0.05 (  69->  80)
 244   9.703     127.8   0.132395   0.124601  83.036467  72.724446     0.08 (  56->  81)    0.07 (  49->  76)    0.06 (  48->  76)
 245   9.712     127.7   0.059960   0.055001  -32.992664  -30.389002     0.05 (  45->  75)    0.04 (  53->  75)    0.04 (  44->  75)
 246   9.726     127.5   0.029506   0.026216  -41.013236  -36.395418     0.15 (  62->  76)    0.11 (  65->  76)    0.08 (  65->  83)
 247   9.736     127.3   0.043382   0.036704   9.080402  10.212019     0.09 (  72->  87)    0.05 (  54->  80)    0.04 (  71->  87)
 248   9.752     127.1   0.051331   0.041899  -62.039923  -59.032008     0.05 (  57->  75)    0.04 (  72->  87)    0.04 (  46->  77)
 249   9.761     127.0   0.029494   0.025401  -17.443717  -16.122068     0.18 (  64->  81)    0.18 (  69->  81)    0.17 (  67->  81)
 250   9.775     126.8   0.030617   0.026596  21.314014  21.428160     0.04 (  73-> 107)    0.04 (  72-> 107)    0.03 (  72->  87)
 251   9.785     126.7   0.043152   0.034322  -17.540392  -17.475134     0.10 (  46->  77)    0.03 (  72->  87)    0.03 (  61->  85)
 252   9.791     126.6   0.006469   0.005147  -1.930736  -1.805874     0.09 (  72->  87)    0.06 (  71->  87)    0.04 (  65->  91)
 253   9.796     126.6   0.010269   0.009743  -14.441869  -12.062749     0.05 (  46->  77)    0.04 (  64->  93)    0.02 (  67->  94)
 254   9.817     126.3   0.025208   0.021486   5.600007   3.144523     0.04 (  62->  83)    0.03 (  56->  75)    0.03 (  65->  88)
 255   9.828     126.2   0.007558   0.006645  19.700360  19.448449     0.09 (  53->  74)    0.04 (  54->  80)    0.03 (  70->  84)
 256   9.834     126.1   0.001535   0.001465  -1.673227  -2.662113     0.51 (  53->  74)    0.07 (  48->  77)    0.02 (  46->  77)
 257   9.842     126.0   0.033880   0.025759  -16.797042  -15.661466     0.07 (  63->  93)    0.06 (  63->  92)    0.05 (  73-> 114)
 258   9.855     125.8   0.032712   0.026556  -64.058263  -59.411602     0.04 (  72-> 108)    0.03 (  70-> 110)    0.02 (  71-> 110)
 259   9.861     125.7   0.005871   0.005272  -12.760747  -11.196571     0.16 (  51->  74)    0.05 (  48->  77)    0.04 (  52->  76)
 260   9.871     125.6   0.002136   0.002293  11.359728  12.885534     0.15 (  52->  76)    0.06 (  50->  76)    0.05 (  51->  74)
 261   9.880     125.5   0.080413   0.066657  85.487932  75.684654     0.16 (  52->  76)    0.06 (  50->  76)    0.03 (  61->  87)
 262   9.891     125.4   0.021100   0.021789   0.926888   0.088547     0.31 (  51->  74)    0.03 (  67-> 100)    0.02 (  64->  89)
 263   9.899     125.2   0.041021   0.037206  11.148423   9.957191     0.11 (  51->  74)    0.06 (  72-> 108)    0.03 (  61->  78)
 264   9.906     125.2   0.024246   0.021780  26.302063  25.061422     0.11 (  67->  84)    0.03 (  67->  93)    0.03 (  64->  94)
 265   9.914     125.1   0.006675   0.005596  -4.239871  -3.965455     0.26 (  50->  74)    0.12 (  52->  74)    0.09 (  48->  77)
 266   9.920     125.0   0.005980   0.005118  -27.758073  -25.707860     0.03 (  50->  74)    0.03 (  71-> 110)    0.03 (  48->  77)
 267   9.929     124.9   0.007941   0.005326   3.311192   1.464134     0.13 (  54->  81)    0.08 (  67->  81)    0.04 (  68->  79)
 268   9.930     124.9   0.007862   0.006598   2.474078   2.080298     0.06 (  54->  80)    0.05 (  71-> 108)    0.04 (  72-> 108)
 269   9.941     124.7   0.010989   0.009755  -30.193700  -30.070881     0.07 (  50->  74)    0.04 (  54->  80)    0.04 (  52->  74)
 270   9.946     124.7   0.004702   0.004635  11.059827  11.618684     0.05 (  67->  88)    0.03 (  67->  83)    0.03 (  68->  79)
 271   9.958     124.5   0.021481   0.021100  48.385123  48.190556     0.29 (  68->  79)    0.03 (  68->  82)    0.02 (  49->  81)
 272   9.965     124.4   0.047206   0.040236   0.628407   2.355751     0.19 (  68->  79)    0.03 (  71-> 108)    0.03 (  67->  88)
 273   9.973     124.3   0.006487   0.005132  -25.744736  -23.542951     0.09 (  68->  79)    0.04 (  65->  88)    0.04 (  61->  78)
 274   9.985     124.2   0.027718   0.024411  -9.867094  -9.446976     0.11 (  61->  78)    0.03 (  61->  75)    0.03 (  39->  75)
 275   9.989     124.1   0.021549   0.017350  37.911720  33.037463     0.04 (  54->  80)    0.04 (  66->  84)    0.03 (  66->  88)
 276  10.000     124.0   0.045378   0.041773   1.814248   1.552184     0.05 (  67->  84)    0.04 (  62->  83)    0.02 (  67->  88)

sTD-DFT done

Total run time:       38.500 sec

           *** ORCA-CIS/TD-DFT FINISHED WITHOUT ERROR ***


-------------------------------------------------------------------------------
                          DFT DISPERSION CORRECTION                            
                                                                               
                              DFTD3 V3.1  Rev 1                                
                              USING zero damping                               
-------------------------------------------------------------------------------
The omegaB97X-D3 functional is recognized. Fit by Chai et al.
Active option DFTDOPT                   ...         3   

molecular C6(AA) [au] = 38675.821597 


            DFT-D V3
 parameters
 s6 scaling factor         :     1.0000 
 rs6 scaling factor        :     1.2810 
 s8 scaling factor         :     1.0000 
 rs8 scaling factor        :     1.0940 
 Damping factor alpha6     :    14.0000 
 Damping factor alpha8     :    16.0000 
 ad hoc parameters k1-k3   :    16.0000     1.3333    -4.0000 

 Edisp/kcal,au: -13.283422544357  -0.021168479005 
 E6   /kcal   :  -6.181306720 
 E8   /kcal   :  -7.102115824 
 % E8         :  53.466008480 

-------------------------   ----------------
Dispersion correction           -0.021168479
-------------------------   ----------------


-------------------------   --------------------
FINAL SINGLE POINT ENERGY     -2390.772856507795
-------------------------   --------------------


                            ***************************************
                            *     ORCA property calculations      *
                            ***************************************

                                    ---------------------
                                    Active property flags
                                    ---------------------
   (+) Dipole Moment
   (+) Quadrupole Moment


------------------------------------------------------------------------------
                       ORCA ELECTRIC PROPERTIES CALCULATION
------------------------------------------------------------------------------

Dipole Moment Calculation                       ... on
Quadrupole Moment Calculation                   ... on
Polarizability Calculation                      ... off
GBWName                                         ... total_job2.gbw
Electron density file                           ... total_job2.scfp.tmp

-------------
DIPOLE MOMENT
-------------
                                X             Y             Z
Electronic contribution:     30.97127       7.18350      -7.80643
Nuclear contribution   :    -32.18704      -7.32359       7.75576
                        -----------------------------------------
Total Dipole Moment    :     -1.21577      -0.14009      -0.05067
                        -----------------------------------------
Magnitude (a.u.)       :      1.22486
Magnitude (Debye)      :      3.11334


------------------------
QUADRUPOLE MOMENT (A.U.)
------------------------

                XX           YY           ZZ           XY           XZ           YZ
  NUC     23026.38491    561.81146   2704.42528   1351.48412   1389.53819   -401.94288
  EL     -23146.52687   -714.77499  -2842.31991  -1351.69250  -1382.53561    396.30076
  TOT      -120.14196   -152.96353   -137.89463     -0.20838      7.00258     -5.64212

--------------------------------------------------------------------------
[[6297,1],1]: A high-performance Open MPI point-to-point messaging module
was unable to find any relevant network interfaces:

Module: OpenFabrics (openib)
  Host: cx1-136-9-3

Another transport will be used instead, although this may result in
lower performance.
--------------------------------------------------------------------------

Timings for individual modules:

Sum of individual times         ...      179.715 sec (=   2.995 min)
GTO integral calculation        ...        5.655 sec (=   0.094 min)   3.1 %
SCF iterations                  ...      133.129 sec (=   2.219 min)  74.1 %
CIS module                      ...       40.931 sec (=   0.682 min)  22.8 %



                             ****ORCA TERMINATED NORMALLY****
TOTAL RUN TIME: 0 days 0 hours 12 minutes 3 seconds 889 msec
