   63
Geometry Step: 1920
    C      7.32005621      3.82037142     -0.42972854      4.11500693
    C      6.91115384      2.49043382     -0.37612620      4.07998861
    C      7.88522841      1.47368633     -0.37154222      4.03035924
    C      9.25695147      1.85104663     -0.41174718      3.86744181
    C      9.67155751      3.19028320     -0.47284670      4.16554772
    C      8.68115550      4.16909170     -0.48227939      4.06754983
    C      7.85713923      0.02096618     -0.29810682      4.04249180
    C      9.22100641     -0.39783412     -0.27905824      3.86843509
    N     10.04091122      0.71151690     -0.36529094      5.17511263
    C      9.61022374     -1.74044994     -0.16459272      4.16106477
    C      8.59915853     -2.69226500     -0.04950491      4.07326655
    C      7.25133723     -2.31313053     -0.06292838      4.13648865
    C      6.84319596     -0.97236096     -0.20354030      3.97611515
    H      6.48987685     -3.08604080      0.01317593      0.91569803
    H     11.05331666      0.69303912     -0.35975613      0.78457910
    H      8.85548080     -3.74323550      0.04859660      0.91745795
    H      5.85328719      2.24710623     -0.34243905      0.89554266
    H     10.72590901      3.45145144     -0.50644706      0.91858969
    H      8.96361961      5.21752456     -0.52884808      0.92219588
    H      6.57205247      4.60841790     -0.43480913      0.91907203
    S      0.91940198     -2.22903931      0.95498682      6.07778174
    C     -0.69442616     -1.54879117      0.63249584      3.79550378
    N     -0.65325423     -0.41816849     -0.06897105      5.17426928
    N      0.60741244     -0.02141598     -0.39287655      5.15188141
    C      1.55642876     -0.83574124      0.05222316      3.83913815
    C      2.97379437     -0.63546606     -0.15713868      3.83312809
    N      3.49533826      0.38408620     -0.82688837      5.16344964
    N      4.85990690      0.35159791     -0.88537372      5.18368095
    C      5.40795935     -0.68028477     -0.26269982      3.80369185
    S      4.19098447     -1.75917885      0.47169404      6.07040843
    C     -7.76056095      0.42684294      1.04594948      4.09255535
    C     -9.11183282      0.74754594      1.15771368      4.07438216
    C    -10.07893347     -0.25941867      1.12452749      4.07700728
    C     -9.68713841     -1.59322089      0.99707573      4.07733481
    C     -8.33587978     -1.91879412      0.89393296      4.08526895
    C     -7.35585045     -0.91214710      0.89922368      3.98099468
    C     -5.91535488     -1.28556772      0.81209901      3.84086375
    C     -4.95162488     -0.48086974      0.05295683      3.84799399
    N     -3.63989333     -0.70199847      0.13434513      5.27642894
    C     -3.23663143     -1.76980625      0.89540503      3.86701100
    C     -4.19379142     -2.64595988      1.52722989      3.85734039
    N     -5.54448898     -2.36550399      1.49539318      5.29937806
    C     -1.90249995     -2.17557724      1.09812189      4.04530362
    S     -1.87145360     -3.64198946      2.05289255      5.93280465
    C     -3.60027306     -3.71746129      2.19296674      4.16484225
    C     -5.37798076      0.59645199     -0.88164189      3.98209942
    C     -4.58319961      1.74873671     -1.01141753      4.08100193
    C     -4.94479797      2.76341367     -1.89507210      4.07591327
    C     -6.09570511      2.63661830     -2.67523141      4.07603488
    C     -6.87720695      1.48347567     -2.57633073      4.07570514
    C     -6.52365693      0.46973975     -1.68828262      4.09430797
    H     -7.12689396     -0.43314325     -1.63524144      0.91800036
    H     -7.76316844      1.37168729     -3.19612889      0.92092658
    H     -6.37715729      3.42769327     -3.36551816      0.92153551
    H     -4.32631281      3.65336097     -1.97953456      0.91934134
    H     -3.68415155      1.83988615     -0.40769247      0.90615285
    H     -8.02691289     -2.95655344      0.79798739      0.91254862
    H    -10.43647751     -2.38072760      0.98102120      0.92102254
    H    -11.13270183     -0.00576592      1.20590161      0.92121277
    H     -9.41148608      1.78597482      1.27304429      0.91996728
    H     -7.01373984      1.21571874      1.08882727      0.91668687
    H     10.65887302     -2.02398753     -0.15543171      0.91501762
    H     -4.09728007     -4.50597049      2.74367625      0.87807772
