
                                 *****************
                                 * O   R   C   A *
                                 *****************

           --- An Ab Initio, DFT and Semiempirical electronic structure package ---

                  #######################################################
                  #                        -***-                        #
                  #  Department of molecular theory and spectroscopy    #
                  #              Directorship: Frank Neese              #
                  # Max Planck Institute for Chemical Energy Conversion #
                  #                  D-45470 Muelheim/Ruhr              #
                  #                       Germany                       #
                  #                                                     #
                  #                  All rights reserved                #
                  #                        -***-                        #
                  #######################################################


                         Program Version 4.0.0 -  RELEASE  -


 With contributions from (in alphabetic order):
   Daniel Aravena         : Magnetic Properties
   Michael Atanasov       : Ab Initio Ligand Field Theory
   Ute Becker             : Parallelization
   Martin Brehm           : Molecular dynamics
   Dmytro Bykov           : SCF Hessian
   Vijay G. Chilkuri      : MRCI spin determinant printing
   Dipayan Datta          : RHF DLPNO-CCSD density
   Achintya Kumar Dutta   : EOM-CC, STEOM-CC
   Dmitry Ganyushin       : Spin-Orbit,Spin-Spin,Magnetic field MRCI
   Yang Guo               : DLPNO-NEVPT2, CIM, IAO-localization
   Andreas Hansen         : Spin unrestricted coupled pair/coupled cluster methods
   Lee Huntington         : MR-EOM, pCC
   Robert Izsak           : Overlap fitted RIJCOSX, COSX-SCS-MP3, EOM
   Christian Kollmar      : KDIIS, OOCD, Brueckner-CCSD(T), CCSD density
   Simone Kossmann        : Meta GGA functionals, TD-DFT gradient, OOMP2, MP2 Hessian
   Martin Krupicka        : AUTO-CI
   Dagmar Lenk            : GEPOL surface
   Dimitrios Liakos       : Extrapolation schemes; parallel MDCI
   Dimitrios Manganas     : ROCIS; embedding schemes
   Dimitrios Pantazis     : SARC Basis sets
   Taras Petrenko         : DFT Hessian,TD-DFT gradient, ASA, ECA, R-Raman, ABS, FL, XAS/XES, NRVS
   Peter Pinski           : DLPNO-MP2
   Christoph Reimann      : Effective Core Potentials
   Marius Retegan         : Local ZFS, SOC
   Christoph Riplinger    : Optimizer, TS searches, QM/MM, DLPNO-CCSD(T), (RO)-DLPNO pert. Triples
   Tobias Risthaus        : Range-separated hybrids, TD-DFT gradient, RPA, STAB
   Michael Roemelt        : Restricted open shell CIS
   Masaaki Saitow         : Open-shell DLPNO
   Barbara Sandhoefer     : DKH picture change effects
   Kantharuban Sivalingam : CASSCF convergence, NEVPT2, FIC-MRCI
   Georgi Stoychev        : AutoAux
   Boris Wezisla          : Elementary symmetry handling
   Frank Wennmohs         : Technical directorship


 We gratefully acknowledge several colleagues who have allowed us to
 interface, adapt or use parts of their codes:
   Stefan Grimme, W. Hujo, H. Kruse,             : VdW corrections, initial TS optimization,
                  C. Bannwarth                     DFT functionals, gCP, sTDA/sTD-DF
   Ed Valeev                                     : LibInt (2-el integral package), F12 methods
   Garnet Chan, S. Sharma, J. Yang, R. Olivares  : DMRG
   Ulf Ekstrom                                   : XCFun DFT Library
   Mihaly Kallay                                 : mrcc  (arbitrary order and MRCC methods)
   Jiri Pittner, Ondrej Demel                    : Mk-CCSD
   Frank Weinhold                                : gennbo (NPA and NBO analysis)
   Christopher J. Cramer and Donald G. Truhlar   : smd solvation model


 Your calculation uses the libint2 library for the computation of 2-el integrals
 For citations please refer to: http://libint.valeyev.net

 This ORCA versions uses:
   CBLAS   interface :  Fast vector & matrix operations
   LAPACKE interface :  Fast linear algebra routines
   SCALAPACK package :  Parallel linear algebra routines


Your calculation utilizes the atom-pairwise dispersion correction
with the zero-damping scheme (D30)
Cite in your paper:
S.Grimme, J.Antony, S.Ehrlich and H.Krieg, J.Chem.Phys., 132, (2010), 154104 
   

XCFun DFT library Copyright 2009-2010 Ulf Ekstrom and contributors.
See http://admol.org/xcfun for more information. This is free soft-
ware; see the source code for copying conditions. There is ABSOLUTELY
NO WARRANTY; not even for MERCHANTABILITY or FITNESS FOR A PARTICULAR
PURPOSE. For details see the documentation. Scientific users of this 
library should cite U. Ekstrom, L. Visscher, R. Bast, A. J. Thorvald-
sen and K. Ruud; J.Chem.Theor.Comp. 2010, DOI: 10.1021/ct100117s
XCFun Version 0.99 
Your calculation utilizes the basis: def2-TZVP
   F. Weigend and R. Ahlrichs, Phys. Chem. Chem. Phys. 7, 3297 (2005).

Your calculation utilizes the auxiliary basis: def2/J
   F. Weigend, Phys. Chem. Chem. Phys. 8, 1057 (2006).

================================================================================
                                        WARNINGS
                       Please study these warnings very carefully!
================================================================================

Warning: TCutStore was < 0. Adjusted to Thresh (uncritical)
INFO   : Checking CIS options ...

WARNING: CIS/ROCIS methods need fully converged wavefunctions
  ===> : Setting SCFConvForced true
         You can overwrite this default with %scf ConvForced false 


INFO   : the flag for use of LIBINT has been found!

Your calculation utilizes the atom-pairwise dispersion correction
with the zero-damping scheme (D30)
Cite in your paper:
S.Grimme, J.Antony, S.Ehrlich and H.Krieg, J.Chem.Phys., 132, (2010), 154104 
   

XCFun DFT library Copyright 2009-2010 Ulf Ekstrom and contributors.
See http://admol.org/xcfun for more information. This is free soft-
ware; see the source code for copying conditions. There is ABSOLUTELY
NO WARRANTY; not even for MERCHANTABILITY or FITNESS FOR A PARTICULAR
PURPOSE. For details see the documentation. Scientific users of this 
library should cite U. Ekstrom, L. Visscher, R. Bast, A. J. Thorvald-
sen and K. Ruud; J.Chem.Theor.Comp. 2010, DOI: 10.1021/ct100117s
XCFun Version 0.99 
Your calculation utilizes the basis: def2-TZVP
   F. Weigend and R. Ahlrichs, Phys. Chem. Chem. Phys. 7, 3297 (2005).

Your calculation utilizes the auxiliary basis: def2/J
   F. Weigend, Phys. Chem. Chem. Phys. 8, 1057 (2006).

================================================================================
                                        WARNINGS
                       Please study these warnings very carefully!
================================================================================

INFO   : Checking CIS options ...

INFO   : the flag for use of LIBINT has been found!

================================================================================
                                       INPUT FILE
================================================================================
NAME = total.inp
|  1> # 
|  2> !wB97X-D3 def2-TZVP def2/J RIJCOSX Grid5 FinalGrid6 TightSCF
|  3> %pal 
|  4>  nprocs 24
|  5> end
|  6> %tddft
|  7>   Mode sTDDFT
|  8>   nroots 2
|  9>   Ethresh 10.0
| 10>   maxcore 5000
| 11>   triplets true
| 12> end
| 13> * xyz 0 1 
| 14> C 8.43213253 3.61697595 -1.00370507
| 15> C 7.74336729 2.52866148 -0.47391710
| 16> C 8.47157992 1.42728023 0.01262084
| 17> C 9.89176260 1.46117828 -0.07628495
| 18> C 10.58899672 2.55904040 -0.60391168
| 19> C 9.83688042 3.63720772 -1.06355978
| 20> C 8.12253787 0.13975722 0.59216625
| 21> C 9.35598892 -0.54626253 0.79618881
| 22> N 10.40347527 0.27122832 0.40994069
| 23> C 9.42901481 -1.85459407 1.29564604
| 24> C 8.22752427 -2.50124709 1.57795112
| 25> C 7.00068678 -1.85283793 1.38496703
| 26> C 6.91325588 -0.53074963 0.91506324
| 27> H 6.07864528 -2.37548326 1.62409940
| 28> H 11.38385310 0.01946006 0.43750997
| 29> H 8.23988741 -3.51959707 1.95647285
| 30> H 6.65830983 2.53613173 -0.43942052
| 31> H 11.67444188 2.56319923 -0.65751648
| 32> H 10.34190633 4.50481819 -1.48003610
| 33> H 7.87469776 4.47070053 -1.37974198
| 34> C -0.17779245 -1.35946515 0.05699657
| 35> N 0.88296386 -0.53684867 0.29408775
| 36> C 2.11115996 -1.09234347 0.31684156
| 37> N 2.34233680 -2.41662507 0.11518611
| 38> C 1.24568974 -3.16274107 -0.12434521
| 39> N -0.01219123 -2.69438171 -0.16152020
| 40> C 3.27922986 -0.20404436 0.57761145
| 41> N 4.51329282 -0.75540238 0.60626160
| 42> C 5.56182995 0.07494158 0.83582296
| 43> N 5.40308723 1.40655876 1.05532249
| 44> C 4.14040133 1.87224699 1.01757820
| 45> N 3.05089832 1.12036852 0.77770349
| 46> H 3.99010360 2.94811298 1.19707043
| 47> H 1.39249637 -4.24027428 -0.30170776
| 48> C -5.21247200 -1.57591056 -0.32001011
| 49> C -6.42915741 -0.89538375 -0.37953965
| 50> C -6.48190946 0.50615984 -0.29094511
| 51> C -5.31343460 1.24987413 -0.13794184
| 52> C -4.04647674 0.58655250 -0.05205195
| 53> C -3.98482207 -0.84101496 -0.16935453
| 54> C -2.82220810 1.33071955 0.07387747
| 55> C -1.60778833 0.66691826 0.10516592
| 56> C -1.51922241 -0.75256766 0.02084940
| 57> C -2.70877572 -1.50231271 -0.08066107
| 58> N -2.64953908 -2.90335061 -0.18970219
| 59> C -2.68233304 -3.71068150 0.81469654
| 60> C -2.84040657 -3.25635975 2.25157928
| 61> N -2.87221861 2.72850757 0.28959993
| 62> C -2.24225437 3.58091862 -0.44884848
| 63> C -1.45871477 3.23042902 -1.69958220
| 64> N -5.39366527 2.64951308 0.04911307
| 65> C -5.83611604 3.46128150 -0.85153572
| 66> C -5.94410464 4.93140525 -0.52958890
| 67> N -5.19821533 -2.96601441 -0.57257449
| 68> C -5.90057664 -3.81875220 0.09800413
| 69> C -6.69707141 -3.49086862 1.34790236
| 70> C -5.92624867 -5.26133685 -0.34417780
| 71> C -2.56964972 -5.19511658 0.58277418
| 72> C -2.29643533 5.04496552 -0.08679829
| 73> C -6.23353684 3.05158613 -2.25706488
| 74> H -7.34584347 -1.45859197 -0.52905742
| 75> H -0.68864100 1.23330836 0.21993701
| 76> H -2.65347599 -5.43475958 -0.47297231
| 77> H -3.34036108 -5.73516823 1.13165275
| 78> H -1.60571303 -5.55801772 0.94161720
| 79> H -3.86229812 -3.44075058 2.58674596
| 80> H -2.17527893 -3.80916917 2.91214917
| 81> H -2.63764097 -2.19314025 2.35038635
| 82> H -5.62135610 -5.92338810 0.46635605
| 83> H -5.26914462 -5.42227070 -1.19350669
| 84> H -6.93758162 -5.55391325 -0.62881225
| 85> H -6.53199311 -4.24994903 2.11139616
| 86> H -7.76568033 -3.47930623 1.13223251
| 87> H -6.42121417 -2.51944969 1.74929044
| 88> H -6.96736227 5.28246121 -0.66424810
| 89> H -5.31528171 5.51748085 -1.20041302
| 90> H -5.63842611 5.13120604 0.49305150
| 91> H -5.80720919 3.73657025 -2.98842404
| 92> H -7.31692609 3.08875358 -2.37378873
| 93> H -5.90115161 2.04194320 -2.48236860
| 94> H -2.88019061 5.20381636 0.81505801
| 95> H -1.29282977 5.43966380 0.07259584
| 96> H -2.74167679 5.62509434 -0.89580896
| 97> H -1.63954520 3.96632326 -2.48155230
| 98> H -0.38821570 3.23383832 -1.49317136
| 99> H -1.72644816 2.24476838 -2.07090903
|100> H 10.38611419 -2.34732526 1.44416543
|101> H -7.43992630 1.01574060 -0.33942867
|102> *
|103> $new_job
|104> # 
|105> !wB97X-D3 def2-TZVP def2/J RIJCOSX Grid5 FinalGrid6 TightSCF
|106> %pal 
|107>  nprocs 24
|108> end
|109> %elprop
|110>    dipole     true
|111>    quadrupole true
|112> end
|113> %tddft
|114>   Mode sTDDFT
|115>   nroots 2
|116>   Ethresh 10.0
|117>   maxcore 5000
|118> end
|119> * xyz 0 1 
|120> C 8.43213253 3.61697595 -1.00370507
|121> C 7.74336729 2.52866148 -0.47391710
|122> C 8.47157992 1.42728023 0.01262084
|123> C 9.89176260 1.46117828 -0.07628495
|124> C 10.58899672 2.55904040 -0.60391168
|125> C 9.83688042 3.63720772 -1.06355978
|126> C 8.12253787 0.13975722 0.59216625
|127> C 9.35598892 -0.54626253 0.79618881
|128> N 10.40347527 0.27122832 0.40994069
|129> C 9.42901481 -1.85459407 1.29564604
|130> C 8.22752427 -2.50124709 1.57795112
|131> C 7.00068678 -1.85283793 1.38496703
|132> C 6.91325588 -0.53074963 0.91506324
|133> H 6.07864528 -2.37548326 1.62409940
|134> H 11.38385310 0.01946006 0.43750997
|135> H 8.23988741 -3.51959707 1.95647285
|136> H 6.65830983 2.53613173 -0.43942052
|137> H 11.67444188 2.56319923 -0.65751648
|138> H 10.34190633 4.50481819 -1.48003610
|139> H 7.87469776 4.47070053 -1.37974198
|140> C -0.17779245 -1.35946515 0.05699657
|141> N 0.88296386 -0.53684867 0.29408775
|142> C 2.11115996 -1.09234347 0.31684156
|143> N 2.34233680 -2.41662507 0.11518611
|144> C 1.24568974 -3.16274107 -0.12434521
|145> N -0.01219123 -2.69438171 -0.16152020
|146> C 3.27922986 -0.20404436 0.57761145
|147> N 4.51329282 -0.75540238 0.60626160
|148> C 5.56182995 0.07494158 0.83582296
|149> N 5.40308723 1.40655876 1.05532249
|150> C 4.14040133 1.87224699 1.01757820
|151> N 3.05089832 1.12036852 0.77770349
|152> H 3.99010360 2.94811298 1.19707043
|153> H 1.39249637 -4.24027428 -0.30170776
|154> C -5.21247200 -1.57591056 -0.32001011
|155> C -6.42915741 -0.89538375 -0.37953965
|156> C -6.48190946 0.50615984 -0.29094511
|157> C -5.31343460 1.24987413 -0.13794184
|158> C -4.04647674 0.58655250 -0.05205195
|159> C -3.98482207 -0.84101496 -0.16935453
|160> C -2.82220810 1.33071955 0.07387747
|161> C -1.60778833 0.66691826 0.10516592
|162> C -1.51922241 -0.75256766 0.02084940
|163> C -2.70877572 -1.50231271 -0.08066107
|164> N -2.64953908 -2.90335061 -0.18970219
|165> C -2.68233304 -3.71068150 0.81469654
|166> C -2.84040657 -3.25635975 2.25157928
|167> N -2.87221861 2.72850757 0.28959993
|168> C -2.24225437 3.58091862 -0.44884848
|169> C -1.45871477 3.23042902 -1.69958220
|170> N -5.39366527 2.64951308 0.04911307
|171> C -5.83611604 3.46128150 -0.85153572
|172> C -5.94410464 4.93140525 -0.52958890
|173> N -5.19821533 -2.96601441 -0.57257449
|174> C -5.90057664 -3.81875220 0.09800413
|175> C -6.69707141 -3.49086862 1.34790236
|176> C -5.92624867 -5.26133685 -0.34417780
|177> C -2.56964972 -5.19511658 0.58277418
|178> C -2.29643533 5.04496552 -0.08679829
|179> C -6.23353684 3.05158613 -2.25706488
|180> H -7.34584347 -1.45859197 -0.52905742
|181> H -0.68864100 1.23330836 0.21993701
|182> H -2.65347599 -5.43475958 -0.47297231
|183> H -3.34036108 -5.73516823 1.13165275
|184> H -1.60571303 -5.55801772 0.94161720
|185> H -3.86229812 -3.44075058 2.58674596
|186> H -2.17527893 -3.80916917 2.91214917
|187> H -2.63764097 -2.19314025 2.35038635
|188> H -5.62135610 -5.92338810 0.46635605
|189> H -5.26914462 -5.42227070 -1.19350669
|190> H -6.93758162 -5.55391325 -0.62881225
|191> H -6.53199311 -4.24994903 2.11139616
|192> H -7.76568033 -3.47930623 1.13223251
|193> H -6.42121417 -2.51944969 1.74929044
|194> H -6.96736227 5.28246121 -0.66424810
|195> H -5.31528171 5.51748085 -1.20041302
|196> H -5.63842611 5.13120604 0.49305150
|197> H -5.80720919 3.73657025 -2.98842404
|198> H -7.31692609 3.08875358 -2.37378873
|199> H -5.90115161 2.04194320 -2.48236860
|200> H -2.88019061 5.20381636 0.81505801
|201> H -1.29282977 5.43966380 0.07259584
|202> H -2.74167679 5.62509434 -0.89580896
|203> H -1.63954520 3.96632326 -2.48155230
|204> H -0.38821570 3.23383832 -1.49317136
|205> H -1.72644816 2.24476838 -2.07090903
|206> H 10.38611419 -2.34732526 1.44416543
|207> H -7.43992630 1.01574060 -0.33942867
|208> *
|209> 
|210>                          ****END OF INPUT****
================================================================================


                 $$$$$$$$$$$$$$$$$$$$$$$$$$$$$$$$$$$$$$$$$$$$$$ 
                 $ THERE ARE  2 JOBS TO BE PROCESSED THIS RUN $
                 $$$$$$$$$$$$$$$$$$$$$$$$$$$$$$$$$$$$$$$$$$$$$$ 




                 $$$$$$$$$$$$$$$$  JOB NUMBER  1 $$$$$$$$$$$$$$


                       ****************************
                       * Single Point Calculation *
                       ****************************

---------------------------------
CARTESIAN COORDINATES (ANGSTROEM)
---------------------------------
  C      8.432133    3.616976   -1.003705
  C      7.743367    2.528661   -0.473917
  C      8.471580    1.427280    0.012621
  C      9.891763    1.461178   -0.076285
  C     10.588997    2.559040   -0.603912
  C      9.836880    3.637208   -1.063560
  C      8.122538    0.139757    0.592166
  C      9.355989   -0.546263    0.796189
  N     10.403475    0.271228    0.409941
  C      9.429015   -1.854594    1.295646
  C      8.227524   -2.501247    1.577951
  C      7.000687   -1.852838    1.384967
  C      6.913256   -0.530750    0.915063
  H      6.078645   -2.375483    1.624099
  H     11.383853    0.019460    0.437510
  H      8.239887   -3.519597    1.956473
  H      6.658310    2.536132   -0.439421
  H     11.674442    2.563199   -0.657516
  H     10.341906    4.504818   -1.480036
  H      7.874698    4.470701   -1.379742
  C     -0.177792   -1.359465    0.056997
  N      0.882964   -0.536849    0.294088
  C      2.111160   -1.092343    0.316842
  N      2.342337   -2.416625    0.115186
  C      1.245690   -3.162741   -0.124345
  N     -0.012191   -2.694382   -0.161520
  C      3.279230   -0.204044    0.577611
  N      4.513293   -0.755402    0.606262
  C      5.561830    0.074942    0.835823
  N      5.403087    1.406559    1.055322
  C      4.140401    1.872247    1.017578
  N      3.050898    1.120369    0.777703
  H      3.990104    2.948113    1.197070
  H      1.392496   -4.240274   -0.301708
  C     -5.212472   -1.575911   -0.320010
  C     -6.429157   -0.895384   -0.379540
  C     -6.481909    0.506160   -0.290945
  C     -5.313435    1.249874   -0.137942
  C     -4.046477    0.586552   -0.052052
  C     -3.984822   -0.841015   -0.169355
  C     -2.822208    1.330720    0.073877
  C     -1.607788    0.666918    0.105166
  C     -1.519222   -0.752568    0.020849
  C     -2.708776   -1.502313   -0.080661
  N     -2.649539   -2.903351   -0.189702
  C     -2.682333   -3.710681    0.814697
  C     -2.840407   -3.256360    2.251579
  N     -2.872219    2.728508    0.289600
  C     -2.242254    3.580919   -0.448848
  C     -1.458715    3.230429   -1.699582
  N     -5.393665    2.649513    0.049113
  C     -5.836116    3.461282   -0.851536
  C     -5.944105    4.931405   -0.529589
  N     -5.198215   -2.966014   -0.572574
  C     -5.900577   -3.818752    0.098004
  C     -6.697071   -3.490869    1.347902
  C     -5.926249   -5.261337   -0.344178
  C     -2.569650   -5.195117    0.582774
  C     -2.296435    5.044966   -0.086798
  C     -6.233537    3.051586   -2.257065
  H     -7.345843   -1.458592   -0.529057
  H     -0.688641    1.233308    0.219937
  H     -2.653476   -5.434760   -0.472972
  H     -3.340361   -5.735168    1.131653
  H     -1.605713   -5.558018    0.941617
  H     -3.862298   -3.440751    2.586746
  H     -2.175279   -3.809169    2.912149
  H     -2.637641   -2.193140    2.350386
  H     -5.621356   -5.923388    0.466356
  H     -5.269145   -5.422271   -1.193507
  H     -6.937582   -5.553913   -0.628812
  H     -6.531993   -4.249949    2.111396
  H     -7.765680   -3.479306    1.132233
  H     -6.421214   -2.519450    1.749290
  H     -6.967362    5.282461   -0.664248
  H     -5.315282    5.517481   -1.200413
  H     -5.638426    5.131206    0.493051
  H     -5.807209    3.736570   -2.988424
  H     -7.316926    3.088754   -2.373789
  H     -5.901152    2.041943   -2.482369
  H     -2.880191    5.203816    0.815058
  H     -1.292830    5.439664    0.072596
  H     -2.741677    5.625094   -0.895809
  H     -1.639545    3.966323   -2.481552
  H     -0.388216    3.233838   -1.493171
  H     -1.726448    2.244768   -2.070909
  H     10.386114   -2.347325    1.444165
  H     -7.439926    1.015741   -0.339429

----------------------------
CARTESIAN COORDINATES (A.U.)
----------------------------
  NO LB      ZA    FRAG     MASS         X           Y           Z
   0 C     6.0000    0    12.011   15.934421    6.835094   -1.896728
   1 C     6.0000    0    12.011   14.632844    4.778478   -0.895574
   2 C     6.0000    0    12.011   16.008966    2.697169    0.023850
   3 C     6.0000    0    12.011   18.692722    2.761227   -0.144158
   4 C     6.0000    0    12.011   20.010304    4.835886   -1.141228
   5 C     6.0000    0    12.011   18.589010    6.873326   -2.009837
   6 C     6.0000    0    12.011   15.349372    0.264103    1.119032
   7 C     6.0000    0    12.011   17.680257   -1.032287    1.504579
   8 N     7.0000    0    14.007   19.659719    0.512547    0.774676
   9 C     6.0000    0    12.011   17.818256   -3.504675    2.448416
  10 C     6.0000    0    12.011   15.547768   -4.726672    2.981895
  11 C     6.0000    0    12.011   13.229381   -3.501356    2.617208
  12 C     6.0000    0    12.011   13.064160   -1.002971    1.729219
  13 H     1.0000    0     1.008   11.486975   -4.489013    3.069103
  14 H     1.0000    0     1.008   21.512365    0.036774    0.826774
  15 H     1.0000    0     1.008   15.571131   -6.651075    3.697198
  16 H     1.0000    0     1.008   12.582382    4.792594   -0.830384
  17 H     1.0000    0     1.008   22.061498    4.843745   -1.242526
  18 H     1.0000    0     1.008   19.543371    8.512873   -2.796863
  19 H     1.0000    0     1.008   14.881022    8.448400   -2.607334
  20 C     6.0000    0    12.011   -0.335979   -2.569017    0.107708
  21 N     7.0000    0    14.007    1.668560   -1.014497    0.555745
  22 C     6.0000    0    12.011    3.989514   -2.064230    0.598744
  23 N     7.0000    0    14.007    4.426375   -4.566760    0.217670
  24 C     6.0000    0    12.011    2.354012   -5.976714   -0.234978
  25 N     7.0000    0    14.007   -0.023038   -5.091644   -0.305229
  26 C     6.0000    0    12.011    6.196846   -0.385588    1.091527
  27 N     7.0000    0    14.007    8.528887   -1.427504    1.145668
  28 C     6.0000    0    12.011   10.510335    0.141619    1.579476
  29 N     7.0000    0    14.007   10.210355    2.658011    1.994270
  30 C     6.0000    0    12.011    7.824225    3.538034    1.922944
  31 N     7.0000    0    14.007    5.765362    2.117190    1.469647
  32 H     1.0000    0     1.008    7.540203    5.571126    2.262135
  33 H     1.0000    0     1.008    2.631437   -8.012957   -0.570145
  34 C     6.0000    0    12.011   -9.850145   -2.978039   -0.604731
  35 C     6.0000    0    12.011  -12.149347   -1.692030   -0.717226
  36 C     6.0000    0    12.011  -12.249034    0.956503   -0.549807
  37 C     6.0000    0    12.011  -10.040936    2.361920   -0.260672
  38 C     6.0000    0    12.011   -7.646733    1.108424   -0.098364
  39 C     6.0000    0    12.011   -7.530222   -1.589288   -0.320034
  40 C     6.0000    0    12.011   -5.333200    2.514696    0.139608
  41 C     6.0000    0    12.011   -3.038280    1.260293    0.198735
  42 C     6.0000    0    12.011   -2.870914   -1.422147    0.039400
  43 C     6.0000    0    12.011   -5.118844   -2.838960   -0.152427
  44 N     7.0000    0    14.007   -5.006903   -5.486538   -0.358485
  45 C     6.0000    0    12.011   -5.068875   -7.012172    1.539553
  46 C     6.0000    0    12.011   -5.367591   -6.153628    4.254868
  47 N     7.0000    0    14.007   -5.427707    5.156132    0.547265
  48 C     6.0000    0    12.011   -4.237247    6.766955   -0.848201
  49 C     6.0000    0    12.011   -2.756571    6.104626   -3.211745
  50 N     7.0000    0    14.007  -10.192550    5.006854    0.092810
  51 C     6.0000    0    12.011  -11.028661    6.540874   -1.609169
  52 C     6.0000    0    12.011  -11.232730    9.319005   -1.000778
  53 N     7.0000    0    14.007   -9.823203   -5.604955   -1.082009
  54 C     6.0000    0    12.011  -11.150474   -7.216396    0.185201
  55 C     6.0000    0    12.011  -12.655631   -6.596786    2.547166
  56 C     6.0000    0    12.011  -11.198987   -9.942486   -0.650402
  57 C     6.0000    0    12.011   -4.855934   -9.817348    1.101284
  58 C     6.0000    0    12.011   -4.339634    9.533603   -0.164025
  59 C     6.0000    0    12.011  -11.779677    5.766662   -4.265234
  60 H     1.0000    0     1.008  -13.881632   -2.756339   -0.999774
  61 H     1.0000    0     1.008   -1.301343    2.330615    0.415621
  62 H     1.0000    0     1.008   -5.014343  -10.270207   -0.893788
  63 H     1.0000    0     1.008   -6.312368  -10.837897    2.138514
  64 H     1.0000    0     1.008   -3.034358  -10.503131    1.779399
  65 H     1.0000    0     1.008   -7.298686   -6.502076    4.888241
  66 H     1.0000    0     1.008   -4.110681   -7.198287    5.503164
  67 H     1.0000    0     1.008   -4.984419   -4.144434    4.441587
  68 H     1.0000    0     1.008  -10.622824  -11.193581    0.881285
  69 H     1.0000    0     1.008   -9.957240  -10.246607   -2.255401
  70 H     1.0000    0     1.008  -13.110129  -10.495375   -1.188283
  71 H     1.0000    0     1.008  -12.343678   -8.031240    3.989961
  72 H     1.0000    0     1.008  -14.675009   -6.574936    2.139609
  73 H     1.0000    0     1.008  -12.134336   -4.761070    3.305680
  74 H     1.0000    0     1.008  -13.166407    9.982405   -1.255247
  75 H     1.0000    0     1.008  -10.044427   10.426528   -2.268452
  76 H     1.0000    0     1.008  -10.655081    9.696574    0.931732
  77 H     1.0000    0     1.008  -10.974035    7.061094   -5.647303
  78 H     1.0000    0     1.008  -13.826986    5.836898   -4.485811
  79 H     1.0000    0     1.008  -11.151560    3.858713   -4.690997
  80 H     1.0000    0     1.008   -5.442771    9.833788    1.540236
  81 H     1.0000    0     1.008   -2.443094   10.279475    0.137186
  82 H     1.0000    0     1.008   -5.181018   10.629888   -1.692834
  83 H     1.0000    0     1.008   -3.098291    7.495265   -4.689454
  84 H     1.0000    0     1.008   -0.733621    6.111069   -2.821685
  85 H     1.0000    0     1.008   -3.262514    4.241997   -3.913451
  86 H     1.0000    0     1.008   19.626911   -4.435802    2.729077
  87 H     1.0000    0     1.008  -14.059423    1.919472   -0.641427

--------------------------------
INTERNAL COORDINATES (ANGSTROEM)
--------------------------------
 C      0   0   0     0.000000000000     0.00000000     0.00000000
 C      1   0   0     1.392659769865     0.00000000     0.00000000
 C      2   1   0     1.407143723790   119.15976236     0.00000000
 C      3   2   1     1.423366488948   118.43205228   359.01595433
 C      4   3   2     1.403505118920   122.53264178     1.32318652
 C      5   4   3     1.392623450354   117.47646809   359.31998033
 C      3   2   1     1.454447914571   134.94739779   181.56427309
 C      7   3   2     1.426060936680   105.97908575   176.48767995
 N      4   3   2     1.383562841701   109.06196266   182.11638815
 C      8   7   3     1.402327252737   123.01176262   182.58578937
 C     10   8   7     1.393354156049   117.40310007     1.05715239
 C     11  10   8     1.401002328561   120.82400815   359.09106311
 C     12  11  10     1.405834701211   122.39480189   359.41036520
 H     12  11  10     1.086509530135   119.35263570   180.72535454
 H      9   4   3     1.012565065316   125.55698697   178.10586363
 H     11  10   8     1.086493547647   119.72019019   179.34770146
 H      2   1   3     1.085631387796   120.06733140   179.98899183
 H      5   4   3     1.086775950147   121.17866938   179.74098649
 H      6   5   4     1.086854002406   119.57404965   180.07607851
 H      1   2   3     1.086730389279   119.46271409   180.07370302
 C     14  12  11     6.529250887277   133.27418911   196.60008747
 N     21  14  12     1.363126571528    46.09198479   326.41909354
 C     22  21  14     1.348168338432   117.59444264    13.87281966
 N     23  22  21     1.359348891185   123.63044761     0.11429664
 C     24  23  22     1.347849810967   115.29470101     0.43833660
 N     25  24  23     1.342760963340   125.03185105   359.37588338
 C     23  22  21     1.490457492062   118.12138246   180.11220641
 N     27  23  22     1.351934867720   118.42549403   179.78040615
 C     28  27  23     1.357055497355   117.34426599   179.53404831
 N     29  28  27     1.358890580177   122.45626244     1.17906425
 C     30  29  28     1.346352792193   116.35788466   359.20715989
 N     31  30  29     1.345317032876   124.83451993   359.79190589
 H     31  30  29     1.101042459087   117.47951699   179.75608440
 H     25  24  23     1.101856378757   117.48667803   179.48011943
 C     21  14  12     5.053412789736   164.99552079   185.75686810
 C     35  21  14     1.395343646622   148.32301148   137.13834559
 C     36  35  21     1.405331350951   121.09372223   358.47917984
 C     37  36  35     1.393504375391   120.51132393   359.85861961
 C     38  37  36     1.432674030282   120.06660815   359.18264345
 C     39  38  37     1.433705006777   119.61292217     2.08045100
 C     39  38  37     1.438219913648   121.22912966   178.49621483
 C     41  39  38     1.384350568850   120.04110816   182.38990919
 C     42  41  39     1.424743301373   122.06824246   359.76532966
 C     43  42  41     1.409772709642   118.79428638   359.18871248
 N     44  43  42     1.406522713150   119.98619557   178.85008128
 C     45  44  43     1.289059897207   124.22021139    91.38953909
 C     46  45  44     1.515264828972   123.62386495     2.30911778
 N     41  39  38     1.415220329035   119.62457464     8.22017953
 C     48  41  39     1.291807104823   123.18631861   233.18709991
 C     49  48  41     1.516941693943   124.80267021     5.03104530
 N     38  37  36     1.414360523389   119.67643458   184.68676600
 C     51  38  37     1.290697057605   123.33616501   294.45330126
 C     52  51  38     1.508832374040   119.23838120   177.05891534
 N     35  21  14     1.412933378638    92.60340913   309.27879744
 C     54  35  21     1.292342382606   123.43165698   127.36814882
 C     55  54  35     1.517945040516   124.74353377   351.94019117
 C     55  54  35     1.509050822457   119.20776779   173.57963962
 C     46  45  44     1.506662874836   119.68380704   181.86102210
 C     49  48  41     1.509122010278   119.04532715   183.50646570
 C     52  51  38     1.517005539898   124.50458650   355.36643733
 H     36  35  21     1.086219312671   119.26571093   176.48503421
 H     42  41  39     1.085726467727   119.66331550   181.19232152
 H     58  46  45     1.085843571671   111.18204558   349.42869040
 H     58  46  45     1.089458337756   110.97331762   227.90983543
 H     58  46  45     1.090705960717   110.07602065   109.49069791
 H     47  46  45     1.091145737989   109.77406295   103.40510511
 H     47  46  45     1.088276440941   111.07112503   222.10794566
 H     47  46  45     1.086881976484   111.10306707   343.78509222
 H     57  55  54     1.090062594012   110.97513355   124.35168328
 H     57  55  54     1.085838385760   111.13613137     3.13295089
 H     57  55  54     1.090601694350   110.40812743   242.68407300
 H     56  55  54     1.089209207001   110.31131108   225.16124672
 H     56  55  54     1.090216582595   110.71501224   106.74776851
 H     56  55  54     1.086675823412   111.34846155   346.32195309
 H     53  52  51     1.090151165917   110.76807622   237.59013301
 H     53  52  51     1.090370527015   110.55845415   119.16376896
 H     53  52  51     1.085888165098   111.10490236   358.56811152
 H     60  52  51     1.088964981403   110.47592136   226.45080439
 H     60  52  51     1.090292687086   110.50580072   107.98583073
 H     60  52  51     1.086563644462   111.28003365   347.66754957
 H     59  49  48     1.085978177564   111.12703885     1.07164518
 H     59  49  48     1.090145559536   110.68754855   121.94709140
 H     59  49  48     1.090544666518   110.65610679   240.34680028
 H     50  49  48     1.088906430403   110.49815174   138.44990399
 H     50  49  48     1.090222599778   110.50902817   257.02265084
 H     50  49  48     1.086780419424   111.34721206    17.08185167
 H     10   8   7     1.086683605288   121.16983988   180.31183673
 H     37  36  35     1.086194951321   119.87913782   180.00818526

---------------------------
INTERNAL COORDINATES (A.U.)
---------------------------
 C      0   0   0     0.000000000000     0.00000000     0.00000000
 C      1   0   0     2.631745562775     0.00000000     0.00000000
 C      2   1   0     2.659116269030   119.15976236     0.00000000
 C      3   2   1     2.689772852314   118.43205228   359.01595433
 C      4   3   2     2.652240302315   122.53264178     1.32318652
 C      5   4   3     2.631676928845   117.47646809   359.31998033
 C      3   2   1     2.748508234592   134.94739779   181.56427309
 C      7   3   2     2.694864620609   105.97908575   176.48767995
 N      4   3   2     2.614554859885   109.06196266   182.11638815
 C      8   7   3     2.650014457807   123.01176262   182.58578937
 C     10   8   7     2.633057762493   117.40310007     1.05715239
 C     11  10   8     2.647510713967   120.82400815   359.09106311
 C     12  11  10     2.656642574851   122.39480189   359.41036520
 H     12  11  10     2.053205453851   119.35263570   180.72535454
 H      9   4   3     1.913470666224   125.55698697   178.10586363
 H     11  10   8     2.053175251326   119.72019019   179.34770146
 H      2   1   3     2.051546005324   120.06733140   179.98899183
 H      5   4   3     2.053708914709   121.17866938   179.74098649
 H      6   5   4     2.053856412103   119.57404965   180.07607851
 H      1   2   3     2.053622817148   119.46271409   180.07370302
 C     14  12  11    12.338496036616   133.27418911   196.60008747
 N     21  14  12     2.575935906059    46.09198479   326.41909354
 C     22  21  14     2.547668942061   117.59444264    13.87281966
 N     23  22  21     2.568797124789   123.63044761     0.11429664
 C     24  23  22     2.547067012385   115.29470101     0.43833660
 N     25  24  23     2.537450484033   125.03185105   359.37588338
 C     23  22  21     2.816556474248   118.12138246   180.11220641
 N     27  23  22     2.554786650890   118.42549403   179.78040615
 C     28  27  23     2.564463238534   117.34426599   179.53404831
 N     29  28  27     2.567931042500   122.45626244     1.17906425
 C     30  29  28     2.544238056886   116.35788466   359.20715989
 N     31  30  29     2.542280755435   124.83451993   359.79190589
 H     31  30  29     2.080668709494   117.47951699   179.75608440
 H     25  24  23     2.082206794765   117.48667803   179.48011943
 C     21  14  12     9.549566214255   164.99552079   185.75686810
 C     35  21  14     2.636817354822   148.32301148   137.13834559
 C     36  35  21     2.655691380712   121.09372223   358.47917984
 C     37  36  35     2.633341635909   120.51132393   359.85861961
 C     38  37  36     2.707361556415   120.06660815   359.18264345
 C     39  38  37     2.709309819641   119.61292217     2.08045100
 C     39  38  37     2.717841757147   121.22912966   178.49621483
 C     41  39  38     2.616043448465   120.04110816   182.38990919
 C     42  41  39     2.692374650735   122.06824246   359.76532966
 C     43  42  41     2.664084332299   118.79428638   359.18871248
 N     44  43  42     2.657942728993   119.98619557   178.85008128
 C     45  44  43     2.435970175941   124.22021139    91.38953909
 C     46  45  44     2.863435547120   123.62386495     2.30911778
 N     41  39  38     2.674378841034   119.62457464     8.22017953
 C     48  41  39     2.441161645970   123.18631861   233.18709991
 C     49  48  41     2.866604362678   124.80267021     5.03104530
 N     38  37  36     2.672754043835   119.67643458   184.68676600
 C     51  38  37     2.439063960732   123.33616501   294.45330126
 C     52  51  38     2.851279968930   119.23838120   177.05891534
 N     35  21  14     2.670057131102    92.60340913   309.27879744
 C     54  35  21     2.442173174385   123.43165698   127.36814882
 C     55  54  35     2.868500412920   124.74353377   351.94019117
 C     55  54  35     2.851692776613   119.20776779   173.57963962
 C     46  45  44     2.847180209586   119.68380704   181.86102210
 C     49  48  41     2.851827302098   119.04532715   183.50646570
 C     52  51  38     2.866725014049   124.50458650   355.36643733
 H     36  35  21     2.052657022325   119.26571093   176.48503421
 H     42  41  39     2.051725680355   119.66331550   181.19232152
 H     58  46  45     2.051946974736   111.18204558   349.42869040
 H     58  46  45     2.058777892676   110.97331762   227.90983543
 H     58  46  45     2.061135558391   110.07602065   109.49069791
 H     47  46  45     2.061966616995   109.77406295   103.40510511
 H     47  46  45     2.056544431377   111.07112503   222.10794566
 H     47  46  45     2.053909275450   111.10306707   343.78509222
 H     57  55  54     2.059919771514   110.97513355   124.35168328
 H     57  55  54     2.051937174786   111.13613137     3.13295089
 H     57  55  54     2.060938523512   110.40812743   242.68407300
 H     56  55  54     2.058307103777   110.31131108   225.16124672
 H     56  55  54     2.060210767764   110.71501224   106.74776851
 H     56  55  54     2.053519702603   111.34846155   346.32195309
 H     53  52  51     2.060087148157   110.76807622   237.59013301
 H     53  52  51     2.060501680558   110.55845415   119.16376896
 H     53  52  51     2.052031244101   111.10490236   358.56811152
 H     60  52  51     2.057845584283   110.47592136   226.45080439
 H     60  52  51     2.060354584410   110.50580072   107.98583073
 H     60  52  51     2.053307715109   111.28003365   347.66754957
 H     59  49  48     2.052201343012   111.12703885     1.07164518
 H     59  49  48     2.060076553634   110.68754855   121.94709140
 H     59  49  48     2.060830756528   110.65610679   240.34680028
 H     50  49  48     2.057734938928   110.49815174   138.44990399
 H     50  49  48     2.060222138592   110.50902817   257.02265084
 H     50  49  48     2.053717360420   111.34721206    17.08185167
 H     10   8   7     2.053534408216   121.16983988   180.31183673
 H     37  36  35     2.052610986045   119.87913782   180.00818526

---------------------
BASIS SET INFORMATION
---------------------
There are 3 groups of distinct atoms

 Group   1 Type C   : 11s6p2d1f contracted to 5s3p2d1f pattern {62111/411/11/1}
 Group   2 Type N   : 11s6p2d1f contracted to 5s3p2d1f pattern {62111/411/11/1}
 Group   3 Type H   : 5s1p contracted to 3s1p pattern {311/1}

Atom   0C    basis set group =>   1
Atom   1C    basis set group =>   1
Atom   2C    basis set group =>   1
Atom   3C    basis set group =>   1
Atom   4C    basis set group =>   1
Atom   5C    basis set group =>   1
Atom   6C    basis set group =>   1
Atom   7C    basis set group =>   1
Atom   8N    basis set group =>   2
Atom   9C    basis set group =>   1
Atom  10C    basis set group =>   1
Atom  11C    basis set group =>   1
Atom  12C    basis set group =>   1
Atom  13H    basis set group =>   3
Atom  14H    basis set group =>   3
Atom  15H    basis set group =>   3
Atom  16H    basis set group =>   3
Atom  17H    basis set group =>   3
Atom  18H    basis set group =>   3
Atom  19H    basis set group =>   3
Atom  20C    basis set group =>   1
Atom  21N    basis set group =>   2
Atom  22C    basis set group =>   1
Atom  23N    basis set group =>   2
Atom  24C    basis set group =>   1
Atom  25N    basis set group =>   2
Atom  26C    basis set group =>   1
Atom  27N    basis set group =>   2
Atom  28C    basis set group =>   1
Atom  29N    basis set group =>   2
Atom  30C    basis set group =>   1
Atom  31N    basis set group =>   2
Atom  32H    basis set group =>   3
Atom  33H    basis set group =>   3
Atom  34C    basis set group =>   1
Atom  35C    basis set group =>   1
Atom  36C    basis set group =>   1
Atom  37C    basis set group =>   1
Atom  38C    basis set group =>   1
Atom  39C    basis set group =>   1
Atom  40C    basis set group =>   1
Atom  41C    basis set group =>   1
Atom  42C    basis set group =>   1
Atom  43C    basis set group =>   1
Atom  44N    basis set group =>   2
Atom  45C    basis set group =>   1
Atom  46C    basis set group =>   1
Atom  47N    basis set group =>   2
Atom  48C    basis set group =>   1
Atom  49C    basis set group =>   1
Atom  50N    basis set group =>   2
Atom  51C    basis set group =>   1
Atom  52C    basis set group =>   1
Atom  53N    basis set group =>   2
Atom  54C    basis set group =>   1
Atom  55C    basis set group =>   1
Atom  56C    basis set group =>   1
Atom  57C    basis set group =>   1
Atom  58C    basis set group =>   1
Atom  59C    basis set group =>   1
Atom  60H    basis set group =>   3
Atom  61H    basis set group =>   3
Atom  62H    basis set group =>   3
Atom  63H    basis set group =>   3
Atom  64H    basis set group =>   3
Atom  65H    basis set group =>   3
Atom  66H    basis set group =>   3
Atom  67H    basis set group =>   3
Atom  68H    basis set group =>   3
Atom  69H    basis set group =>   3
Atom  70H    basis set group =>   3
Atom  71H    basis set group =>   3
Atom  72H    basis set group =>   3
Atom  73H    basis set group =>   3
Atom  74H    basis set group =>   3
Atom  75H    basis set group =>   3
Atom  76H    basis set group =>   3
Atom  77H    basis set group =>   3
Atom  78H    basis set group =>   3
Atom  79H    basis set group =>   3
Atom  80H    basis set group =>   3
Atom  81H    basis set group =>   3
Atom  82H    basis set group =>   3
Atom  83H    basis set group =>   3
Atom  84H    basis set group =>   3
Atom  85H    basis set group =>   3
Atom  86H    basis set group =>   3
Atom  87H    basis set group =>   3
-------------------------------
AUXILIARY BASIS SET INFORMATION
-------------------------------
There are 3 groups of distinct atoms

 Group   1 Type C   : 12s5p4d2f1g contracted to 6s4p3d1f1g pattern {711111/2111/211/2/1}
 Group   2 Type N   : 12s5p4d2f1g contracted to 6s4p3d1f1g pattern {711111/2111/211/2/1}
 Group   3 Type H   : 5s2p1d contracted to 3s1p1d pattern {311/2/1}

Atom   0C    basis set group =>   1
Atom   1C    basis set group =>   1
Atom   2C    basis set group =>   1
Atom   3C    basis set group =>   1
Atom   4C    basis set group =>   1
Atom   5C    basis set group =>   1
Atom   6C    basis set group =>   1
Atom   7C    basis set group =>   1
Atom   8N    basis set group =>   2
Atom   9C    basis set group =>   1
Atom  10C    basis set group =>   1
Atom  11C    basis set group =>   1
Atom  12C    basis set group =>   1
Atom  13H    basis set group =>   3
Atom  14H    basis set group =>   3
Atom  15H    basis set group =>   3
Atom  16H    basis set group =>   3
Atom  17H    basis set group =>   3
Atom  18H    basis set group =>   3
Atom  19H    basis set group =>   3
Atom  20C    basis set group =>   1
Atom  21N    basis set group =>   2
Atom  22C    basis set group =>   1
Atom  23N    basis set group =>   2
Atom  24C    basis set group =>   1
Atom  25N    basis set group =>   2
Atom  26C    basis set group =>   1
Atom  27N    basis set group =>   2
Atom  28C    basis set group =>   1
Atom  29N    basis set group =>   2
Atom  30C    basis set group =>   1
Atom  31N    basis set group =>   2
Atom  32H    basis set group =>   3
Atom  33H    basis set group =>   3
Atom  34C    basis set group =>   1
Atom  35C    basis set group =>   1
Atom  36C    basis set group =>   1
Atom  37C    basis set group =>   1
Atom  38C    basis set group =>   1
Atom  39C    basis set group =>   1
Atom  40C    basis set group =>   1
Atom  41C    basis set group =>   1
Atom  42C    basis set group =>   1
Atom  43C    basis set group =>   1
Atom  44N    basis set group =>   2
Atom  45C    basis set group =>   1
Atom  46C    basis set group =>   1
Atom  47N    basis set group =>   2
Atom  48C    basis set group =>   1
Atom  49C    basis set group =>   1
Atom  50N    basis set group =>   2
Atom  51C    basis set group =>   1
Atom  52C    basis set group =>   1
Atom  53N    basis set group =>   2
Atom  54C    basis set group =>   1
Atom  55C    basis set group =>   1
Atom  56C    basis set group =>   1
Atom  57C    basis set group =>   1
Atom  58C    basis set group =>   1
Atom  59C    basis set group =>   1
Atom  60H    basis set group =>   3
Atom  61H    basis set group =>   3
Atom  62H    basis set group =>   3
Atom  63H    basis set group =>   3
Atom  64H    basis set group =>   3
Atom  65H    basis set group =>   3
Atom  66H    basis set group =>   3
Atom  67H    basis set group =>   3
Atom  68H    basis set group =>   3
Atom  69H    basis set group =>   3
Atom  70H    basis set group =>   3
Atom  71H    basis set group =>   3
Atom  72H    basis set group =>   3
Atom  73H    basis set group =>   3
Atom  74H    basis set group =>   3
Atom  75H    basis set group =>   3
Atom  76H    basis set group =>   3
Atom  77H    basis set group =>   3
Atom  78H    basis set group =>   3
Atom  79H    basis set group =>   3
Atom  80H    basis set group =>   3
Atom  81H    basis set group =>   3
Atom  82H    basis set group =>   3
Atom  83H    basis set group =>   3
Atom  84H    basis set group =>   3
Atom  85H    basis set group =>   3
Atom  86H    basis set group =>   3
Atom  87H    basis set group =>   3
-------------------------
ECP PARAMETER INFORMATION
-------------------------



--------------------------------------------------------------------------
[[31988,1],1]: A high-performance Open MPI point-to-point messaging module
was unable to find any relevant network interfaces:

Module: OpenFabrics (openib)
  Host: cx1-105-14-1

Another transport will be used instead, although this may result in
lower performance.
--------------------------------------------------------------------------


           ************************************************************
           *        Program running with 24 parallel MPI-processes    *
           *              working on a common directory               *
           ************************************************************
------------------------------------------------------------------------------
                           ORCA GTO INTEGRAL CALCULATION
                           -- RI-GTO INTEGRALS CHOSEN --
------------------------------------------------------------------------------

                         BASIS SET STATISTICS AND STARTUP INFO

Gaussian basis set:
 # of primitive gaussian shells          ... 1242
 # of primitive gaussian functions       ... 2642
 # of contracted shells                  ...  709
 # of contracted basis functions         ... 1803
 Highest angular momentum                ...    3
 Maximum contraction depth               ...    6
Auxiliary gaussian basis set:
 # of primitive gaussian shells          ... 1520
 # of primitive gaussian functions       ... 4162
 # of contracted shells                  ...  950
 # of contracted aux-basis functions     ... 2906
 Highest angular momentum                ...    4
 Maximum contraction depth               ...    7
Ratio of auxiliary to basis functions    ...  1.61
Integral package used                  ... LIBINT
 One Electron integrals                  
   ECP integrals                         ... done
 Ordering auxiliary basis shells         ... done
 Integral threshhold             Thresh  ...  2.500e-11
 Primitive cut-off               TCut    ...  2.500e-12
 Pre-screening matrix                    ... done
 Shell pair data                         ... 
 Ordering of the shell pairs             ... done (   0.042 sec) 106422 of 251695 pairs
 Determination of significant pairs      ... done (   0.001 sec)
 Creation of shell pair data             ... done (   0.027 sec)
 Storage of shell pair data              ... done (   0.250 sec)
 Shell pair data done in (   0.321 sec)
 Computing two index integrals           ... done
 Cholesky decomposition of the V-matrix  ... done


Timings:
 Total evaluation time                   ...  14.862 sec (  0.248 min)
 One electron matrix time                ...   5.427 sec (  0.090 min) = 36.5%
 Schwartz matrix evaluation time         ...   6.375 sec (  0.106 min) = 42.9%
 Two index repulsion integral time       ...   1.126 sec (  0.019 min) =  7.6%
 Cholesky decomposition of V             ...   1.566 sec (  0.026 min) = 10.5%
 Three index repulsion integral time     ...   0.000 sec (  0.000 min) =  0.0%

--------------------------------------------------------------------------
[[31782,1],7]: A high-performance Open MPI point-to-point messaging module
was unable to find any relevant network interfaces:

Module: OpenFabrics (openib)
  Host: cx1-105-14-1

Another transport will be used instead, although this may result in
lower performance.
--------------------------------------------------------------------------


           ************************************************************
           *        Program running with 24 parallel MPI-processes    *
           *              working on a common directory               *
           ************************************************************
-------------------------------------------------------------------------------
                                 ORCA SCF
-------------------------------------------------------------------------------

------------
SCF SETTINGS
------------
Hamiltonian:
 Density Functional     Method          .... DFT(GTOs)
 Exchange Functional    Exchange        .... WB97X-D3
 Correlation Functional Correlation     .... WB97X-D3
 Gradients option       PostSCFGGA      .... off
 Hybrid DFT is turned on
   Fraction HF Exchange ScalHFX         ....  0.195728
   Scaling of DF-GGA-X  ScalDFX         ....  0.000000
   Scaling of DF-GGA-C  ScalDFC         ....  1.000000
   Scaling of DF-LDA-C  ScalLDAC        ....  1.000000
   Perturbative correction              ....  0.000000
 Long-range corrected/Screened/Range-Separated Hybrid DFT is turned on
   Amount of maximum screened exact exchange              ....  0.804272
   Range separation parameter mu (erf(mu*r12)/r12)        ....  0.250000
 RI-approximation to the Coulomb term is turned on
   Number of auxiliary basis functions  .... 2906
   RIJ-COSX (HFX calculated with COS-X)).... on


General Settings:
 Integral files         IntName         .... total
 Hartree-Fock type      HFTyp           .... RHF
 Total Charge           Charge          ....    0
 Multiplicity           Mult            ....    1
 Number of Electrons    NEL             ....  354
 Basis Dimension        Dim             .... 1803
 Nuclear Repulsion      ENuc            ....   6009.0434828765 Eh

Convergence Acceleration:
 DIIS                   CNVDIIS         .... on
   Start iteration      DIISMaxIt       ....    12
   Startup error        DIISStart       ....  0.200000
   # of expansion vecs  DIISMaxEq       ....     5
   Bias factor          DIISBfac        ....   1.050
   Max. coefficient     DIISMaxC        ....  10.000
 Newton-Raphson         CNVNR           .... off
 SOSCF                  CNVSOSCF        .... on
   Start iteration      SOSCFMaxIt      ....   150
   Startup grad/error   SOSCFStart      ....  0.003300
 Level Shifting         CNVShift        .... on
   Level shift para.    LevelShift      ....    0.2500
   Turn off err/grad.   ShiftErr        ....    0.0010
 Zerner damping         CNVZerner       .... off
 Static damping         CNVDamp         .... on
   Fraction old density DampFac         ....    0.7000
   Max. Damping (<1)    DampMax         ....    0.9800
   Min. Damping (>=0)   DampMin         ....    0.0000
   Turn off err/grad.   DampErr         ....    0.1000
 Fernandez-Rico         CNVRico         .... off

SCF Procedure:
 Maximum # iterations   MaxIter         ....   125
 SCF integral mode      SCFMode         .... Direct
   Integral package                     .... LIBINT
 Reset frequeny         DirectResetFreq ....    20
 Integral Threshold     Thresh          ....  2.500e-11 Eh
 Primitive CutOff       TCut            ....  2.500e-12 Eh

Convergence Tolerance:
 Convergence Check Mode ConvCheckMode   .... Total+1el-Energy
 Convergence forced     ConvForced      .... 1
 Energy Change          TolE            ....  1.000e-08 Eh
 1-El. energy change                    ....  1.000e-05 Eh
 Orbital Gradient       TolG            ....  1.000e-05
 Orbital Rotation angle TolX            ....  1.000e-05
 DIIS Error             TolErr          ....  5.000e-07


Diagonalization of the overlap matrix:
Smallest eigenvalue                        ... 2.527e-06
Time for diagonalization                   ...    1.097 sec
Threshold for overlap eigenvalues          ... 1.000e-08
Number of eigenvalues below threshold      ... 0
Time for construction of square roots      ...    1.207 sec
Total time needed                          ...    2.319 sec

-------------------
DFT GRID GENERATION
-------------------

General Integration Accuracy     IntAcc      ...  5.010
Radial Grid Type                 RadialGrid  ... Gauss-Chebyshev
Angular Grid (max. acc.)         AngularGrid ... Lebedev-434
Angular grid pruning method      GridPruning ... 3 (G Style)
Weight generation scheme         WeightScheme... Becke
Basis function cutoff            BFCut       ...    1.0000e-11
Integration weight cutoff        WCut        ...    1.0000e-14
Grids for H and He will be reduced by one unit

# of grid points (after initial pruning)     ... 792014 (   0.0 sec)
# of grid points (after weights+screening)   ... 672549 (   6.6 sec)
nearest neighbour list constructed           ...    0.0 sec
Grid point re-assignment to atoms done       ...    0.3 sec
Grid point division into batches done        ...    6.4 sec
Reduced shell lists constructed in    7.9 sec

Total number of grid points                  ...   672549
Total number of batches                      ...    10555
Average number of points per batch           ...       63
Average number of grid points per atom       ...     7643
Average number of shells per batch           ...   141.87 (20.01%)
Average number of basis functions per batch  ...   371.88 (20.63%)
Average number of large shells per batch     ...   100.01 (70.49%)
Average number of large basis fcns per batch ...   262.12 (70.49%)
Maximum spatial batch extension              ...   8.93, 10.20, 20.10 au
Average spatial batch extension              ...   0.05,  0.05,  0.06 au

Time for grid setup =   17.294 sec

------------------------------
INITIAL GUESS: MODEL POTENTIAL
------------------------------
Loading Hartree-Fock densities                     ... done
Calculating cut-offs                               ... done
Setting up the integral package                    ... done
Initializing the effective Hamiltonian             ... done
Starting the Coulomb interaction                   ... done (   1.5 sec)
Reading the grid                                   ... done
Mapping shells                                     ... done
Starting the XC term evaluation                    ... done (   5.1 sec)
  promolecular density results
     # of electrons  =    353.982007126
     EX              =   -287.334572548
     EC              =    -11.892894335
     EX+EC           =   -299.227466884
Transforming the Hamiltonian                       ... done (   0.7 sec)
Diagonalizing the Hamiltonian                      ... done (   1.1 sec)
Back transforming the eigenvectors                 ... done (   0.4 sec)
Now organizing SCF variables                       ... done
                      ------------------
                      INITIAL GUESS DONE (  26.6 sec)
                      ------------------
--------------------
COSX GRID GENERATION
--------------------

General Integration Accuracy     IntAcc      ...  3.340
Radial Grid Type                 RadialGrid  ... Gauss-Chebyshev
Angular Grid (max. acc.)         AngularGrid ... Lebedev-50
Angular grid pruning method      GridPruning ... 3 (G Style)
Weight generation scheme         WeightScheme... Becke
Basis function cutoff            BFCut       ...    1.0000e-11
Integration weight cutoff        WCut        ...    1.0000e-14
Grids for H and He will be reduced by one unit

# of grid points (after initial pruning)     ...  41266 (   0.0 sec)
# of grid points (after weights+screening)   ...  36692 (   0.3 sec)
nearest neighbour list constructed           ...    0.0 sec
Grid point re-assignment to atoms done       ...    0.0 sec
Grid point division into batches done        ...    0.0 sec
Reduced shell lists constructed in    0.2 sec

Total number of grid points                  ...    36692
Total number of batches                      ...      614
Average number of points per batch           ...       59
Average number of grid points per atom       ...      417
Average number of shells per batch           ...   162.26 (22.89%)
Average number of basis functions per batch  ...   430.70 (23.89%)
Average number of large shells per batch     ...   115.56 (71.22%)
Average number of large basis fcns per batch ...   308.59 (71.65%)
Maximum spatial batch extension              ...   4.14, 11.18, 24.69 au
Average spatial batch extension              ...   0.11,  0.17,  0.25 au

Overlap Fitting                  UseSFitting ... on
Constructing numerical overlap ... done (      0.3 sec)
Inverting numerical overlap    ... done (      0.4 sec)
Obtaining analytic overlap     ... done (      0.1 sec)
Final contraction and storage  ... done (      2.0 sec)


General Integration Accuracy     IntAcc      ...  3.670
Radial Grid Type                 RadialGrid  ... Gauss-Chebyshev
Angular Grid (max. acc.)         AngularGrid ... Lebedev-50
Angular grid pruning method      GridPruning ... 3 (G Style)
Weight generation scheme         WeightScheme... Becke
Basis function cutoff            BFCut       ...    1.0000e-11
Integration weight cutoff        WCut        ...    1.0000e-14
Grids for H and He will be reduced by one unit

# of grid points (after initial pruning)     ...  52138 (   0.0 sec)
# of grid points (after weights+screening)   ...  46155 (   0.4 sec)
nearest neighbour list constructed           ...    0.0 sec
Grid point re-assignment to atoms done       ...    0.0 sec
Grid point division into batches done        ...    0.0 sec
Reduced shell lists constructed in    0.2 sec

Total number of grid points                  ...    46155
Total number of batches                      ...      757
Average number of points per batch           ...       60
Average number of grid points per atom       ...      524
Average number of shells per batch           ...   161.48 (22.78%)
Average number of basis functions per batch  ...   427.91 (23.73%)
Average number of large shells per batch     ...   115.24 (71.36%)
Average number of large basis fcns per batch ...   307.61 (71.89%)
Maximum spatial batch extension              ...   4.50, 11.43, 24.18 au
Average spatial batch extension              ...   0.10,  0.15,  0.24 au

Overlap Fitting                  UseSFitting ... on
Constructing numerical overlap ... done (      0.4 sec)
Inverting numerical overlap    ... done (      0.4 sec)
Obtaining analytic overlap     ... done (      0.0 sec)
Final contraction and storage  ... done (      1.9 sec)


General Integration Accuracy     IntAcc      ...  4.010
Radial Grid Type                 RadialGrid  ... Gauss-Chebyshev
Angular Grid (max. acc.)         AngularGrid ... Lebedev-110
Angular grid pruning method      GridPruning ... 3 (G Style)
Weight generation scheme         WeightScheme... Becke
Basis function cutoff            BFCut       ...    1.0000e-11
Integration weight cutoff        WCut        ...    1.0000e-14
Grids for H and He will be reduced by one unit

# of grid points (after initial pruning)     ...  99584 (   0.0 sec)
# of grid points (after weights+screening)   ...  87448 (   0.9 sec)
nearest neighbour list constructed           ...    0.0 sec
Grid point re-assignment to atoms done       ...    0.0 sec
Grid point division into batches done        ...    0.1 sec
Reduced shell lists constructed in    0.4 sec

Total number of grid points                  ...    87448
Total number of batches                      ...     1413
Average number of points per batch           ...       61
Average number of grid points per atom       ...      994
Average number of shells per batch           ...   156.00 (22.00%)
Average number of basis functions per batch  ...   412.93 (22.90%)
Average number of large shells per batch     ...   110.95 (71.12%)
Average number of large basis fcns per batch ...   293.82 (71.15%)
Maximum spatial batch extension              ...   6.01, 13.51, 26.16 au
Average spatial batch extension              ...   0.09,  0.12,  0.17 au

Overlap Fitting                  UseSFitting ... on
Constructing numerical overlap ... done (      0.6 sec)
Inverting numerical overlap    ... done (      0.5 sec)
Obtaining analytic overlap     ... done (      0.0 sec)
Final contraction and storage  ... done (      2.0 sec)

Time for X-Grid setup             =   11.968 sec
--------------
SCF ITERATIONS
--------------
ITER       Energy         Delta-E        Max-DP      RMS-DP      [F,P]     Damp
               ***  Starting incremental Fock matrix formation  ***
  0  -2147.6928069068   0.000000000000 0.11274088  0.00054076  0.1886993 0.7000
  1  -2148.1745133333  -0.481706426516 0.12964500  0.00049277  0.1068088 0.7000
                               ***Turning on DIIS***
  2  -2148.4203846717  -0.245871338392 0.26418219  0.00106436  0.0582738 0.0000
  3  -2148.8240775241  -0.403692852382 0.07841316  0.00030925  0.0424836 0.0000
  4  -2148.8822514700  -0.058173945930 0.01658735  0.00008942  0.0087851 0.0000
  5  -2148.8841546822  -0.001903212238 0.00668973  0.00004210  0.0047461 0.0000
                      *** Initiating the SOSCF procedure ***
                           *** Shutting down DIIS ***
                      *** Re-Reading the Fockian *** 
                      *** Removing any level shift *** 
ITER      Energy       Delta-E        Grad      Rot      Max-DP    RMS-DP
  6  -2148.88454652  -0.0003918354  0.000663  0.000663  0.001832  0.000020
               *** Restarting incremental Fock matrix formation ***
  7  -2148.88466425  -0.0001177352  0.000460  0.001946  0.017485  0.000110
  8  -2148.88469971  -0.0000354579  0.000330  0.001675  0.015462  0.000077
  9  -2148.88471065  -0.0000109361  0.000209  0.000316  0.012625  0.000065
 10  -2148.88471515  -0.0000045001  0.000068  0.000137  0.003236  0.000017
 11  -2148.88471583  -0.0000006782  0.000039  0.000126  0.002240  0.000010
 12  -2148.88471578   0.0000000471  0.000010  0.000033  0.000489  0.000002
 13  -2148.88471573   0.0000000468  0.000009  0.000026  0.000397  0.000002
                  ***Gradient check signals convergence***
              ***Rediagonalizing the Fockian in SOSCF/NRSCF***

               *****************************************************
               *                     SUCCESS                       *
               *           SCF CONVERGED AFTER  14 CYCLES          *
               *****************************************************

Old exchange energy                            =    -95.235063861 Eh
New exchange energy                            =    -95.235140816 Eh
Exchange energy change after final integration =     -0.000076955 Eh
Total energy after final integration           =  -2148.884792795 Eh
Final COS-X integration done in                =   142.367 sec

----------------
TOTAL SCF ENERGY
----------------

Total Energy       :        -2148.88479280 Eh          -58474.12798 eV

Components:
Nuclear Repulsion  :         6009.04348288 Eh          163514.38608 eV
Electronic Energy  :        -8157.92827567 Eh         -221988.51406 eV
One Electron Energy:       -14876.80703000 Eh         -404818.49986 eV
Two Electron Energy:         6718.87875433 Eh          182829.98580 eV

Virial components:
Potential Energy   :        -4286.06021084 Eh         -116629.62767 eV
Kinetic Energy     :         2137.17541804 Eh           58155.49969 eV
Virial Ratio       :            2.00547890


DFT components:
N(Alpha)           :      177.000013013117 electrons
N(Beta)            :      177.000013013117 electrons
N(Total)           :      354.000026026234 electrons
E(XC)              :     -211.222369367381 Eh       

---------------
SCF CONVERGENCE
---------------

  Last Energy change         ...   -1.0904e-07  Tolerance :   1.0000e-08
  Last MAX-Density change    ...    6.4705e-14  Tolerance :   1.0000e-07
  Last RMS-Density change    ...    2.3076e-16  Tolerance :   5.0000e-09
  Last Orbital Gradient      ...    2.3729e-06  Tolerance :   1.0000e-05
  Last Orbital Rotation      ...    1.4439e-05  Tolerance :   1.0000e-05

             **** THE GBW FILE WAS UPDATED (total.gbw) ****
             **** DENSITY FILE WAS UPDATED (total.scfp.tmp) ****
             **** ENERGY FILE WAS UPDATED (total.en.tmp) ****
----------------
ORBITAL ENERGIES
----------------

  NO   OCC          E(Eh)            E(eV) 
   0   2.0000     -14.465518      -393.6268 
   1   2.0000     -14.439428      -392.9168 
   2   2.0000     -14.439115      -392.9083 
   3   2.0000     -14.438859      -392.9013 
   4   2.0000     -14.431694      -392.7063 
   5   2.0000     -14.431195      -392.6928 
   6   2.0000     -14.426716      -392.5709 
   7   2.0000     -14.414157      -392.2292 
   8   2.0000     -14.409091      -392.0913 
   9   2.0000     -14.408830      -392.0842 
  10   2.0000     -14.403868      -391.9492 
  11   2.0000     -10.382803      -282.5304 
  12   2.0000     -10.381945      -282.5071 
  13   2.0000     -10.376993      -282.3723 
  14   2.0000     -10.374277      -282.2984 
  15   2.0000     -10.371426      -282.2208 
  16   2.0000     -10.362920      -281.9894 
  17   2.0000     -10.335780      -281.2509 
  18   2.0000     -10.331719      -281.1404 
  19   2.0000     -10.330676      -281.1120 
  20   2.0000     -10.327577      -281.0277 
  21   2.0000     -10.327174      -281.0167 
  22   2.0000     -10.327073      -281.0139 
  23   2.0000     -10.322702      -280.8950 
  24   2.0000     -10.315202      -280.6909 
  25   2.0000     -10.312017      -280.6042 
  26   2.0000     -10.305492      -280.4267 
  27   2.0000     -10.303364      -280.3688 
  28   2.0000     -10.297152      -280.1997 
  29   2.0000     -10.297125      -280.1990 
  30   2.0000     -10.296460      -280.1809 
  31   2.0000     -10.292230      -280.0658 
  32   2.0000     -10.288312      -279.9592 
  33   2.0000     -10.285997      -279.8962 
  34   2.0000     -10.285501      -279.8827 
  35   2.0000     -10.282593      -279.8036 
  36   2.0000     -10.281691      -279.7790 
  37   2.0000     -10.280861      -279.7565 
  38   2.0000     -10.279263      -279.7130 
  39   2.0000     -10.277865      -279.6749 
  40   2.0000     -10.277596      -279.6676 
  41   2.0000     -10.276722      -279.6438 
  42   2.0000     -10.275423      -279.6085 
  43   2.0000     -10.274706      -279.5890 
  44   2.0000     -10.274235      -279.5762 
  45   2.0000     -10.271987      -279.5150 
  46   2.0000     -10.271165      -279.4926 
  47   2.0000     -10.270428      -279.4726 
  48   2.0000     -10.269416      -279.4450 
  49   2.0000     -10.268941      -279.4321 
  50   2.0000     -10.268683      -279.4251 
  51   2.0000      -1.141356       -31.0579 
  52   2.0000      -1.125401       -30.6237 
  53   2.0000      -1.102453       -29.9993 
  54   2.0000      -1.058263       -28.7968 
  55   2.0000      -1.047379       -28.5006 
  56   2.0000      -1.037221       -28.2242 
  57   2.0000      -1.029262       -28.0076 
  58   2.0000      -1.026808       -27.9409 
  59   2.0000      -1.019658       -27.7463 
  60   2.0000      -1.007046       -27.4031 
  61   2.0000      -0.996441       -27.1145 
  62   2.0000      -0.970779       -26.4162 
  63   2.0000      -0.968122       -26.3439 
  64   2.0000      -0.960136       -26.1266 
  65   2.0000      -0.931115       -25.3369 
  66   2.0000      -0.906749       -24.6739 
  67   2.0000      -0.898988       -24.4627 
  68   2.0000      -0.884751       -24.0753 
  69   2.0000      -0.878710       -23.9109 
  70   2.0000      -0.873060       -23.7572 
  71   2.0000      -0.868600       -23.6358 
  72   2.0000      -0.861143       -23.4329 
  73   2.0000      -0.848432       -23.0870 
  74   2.0000      -0.836326       -22.7576 
  75   2.0000      -0.832374       -22.6500 
  76   2.0000      -0.831597       -22.6289 
  77   2.0000      -0.822336       -22.3769 
  78   2.0000      -0.819177       -22.2910 
  79   2.0000      -0.815843       -22.2002 
  80   2.0000      -0.814053       -22.1515 
  81   2.0000      -0.804084       -21.8802 
  82   2.0000      -0.795269       -21.6404 
  83   2.0000      -0.780663       -21.2429 
  84   2.0000      -0.764584       -20.8054 
  85   2.0000      -0.749222       -20.3874 
  86   2.0000      -0.733534       -19.9605 
  87   2.0000      -0.725107       -19.7312 
  88   2.0000      -0.720922       -19.6173 
  89   2.0000      -0.715556       -19.4713 
  90   2.0000      -0.709936       -19.3183 
  91   2.0000      -0.688978       -18.7480 
  92   2.0000      -0.667866       -18.1736 
  93   2.0000      -0.665166       -18.1001 
  94   2.0000      -0.661761       -18.0074 
  95   2.0000      -0.653666       -17.7871 
  96   2.0000      -0.649234       -17.6666 
  97   2.0000      -0.633407       -17.2359 
  98   2.0000      -0.628345       -17.0981 
  99   2.0000      -0.616500       -16.7758 
 100   2.0000      -0.608991       -16.5715 
 101   2.0000      -0.601723       -16.3737 
 102   2.0000      -0.596946       -16.2437 
 103   2.0000      -0.592274       -16.1166 
 104   2.0000      -0.586106       -15.9487 
 105   2.0000      -0.582575       -15.8527 
 106   2.0000      -0.580106       -15.7855 
 107   2.0000      -0.573874       -15.6159 
 108   2.0000      -0.566069       -15.4035 
 109   2.0000      -0.561891       -15.2898 
 110   2.0000      -0.560205       -15.2439 
 111   2.0000      -0.557257       -15.1637 
 112   2.0000      -0.554924       -15.1003 
 113   2.0000      -0.553880       -15.0718 
 114   2.0000      -0.551200       -14.9989 
 115   2.0000      -0.547057       -14.8862 
 116   2.0000      -0.545997       -14.8573 
 117   2.0000      -0.542796       -14.7702 
 118   2.0000      -0.539572       -14.6825 
 119   2.0000      -0.539252       -14.6738 
 120   2.0000      -0.536571       -14.6008 
 121   2.0000      -0.534120       -14.5341 
 122   2.0000      -0.532476       -14.4894 
 123   2.0000      -0.528940       -14.3932 
 124   2.0000      -0.526459       -14.3257 
 125   2.0000      -0.522133       -14.2080 
 126   2.0000      -0.518936       -14.1210 
 127   2.0000      -0.515907       -14.0386 
 128   2.0000      -0.513569       -13.9749 
 129   2.0000      -0.508314       -13.8319 
 130   2.0000      -0.506277       -13.7765 
 131   2.0000      -0.502019       -13.6606 
 132   2.0000      -0.495926       -13.4948 
 133   2.0000      -0.493410       -13.4264 
 134   2.0000      -0.488026       -13.2799 
 135   2.0000      -0.486725       -13.2445 
 136   2.0000      -0.485986       -13.2244 
 137   2.0000      -0.484695       -13.1892 
 138   2.0000      -0.483384       -13.1536 
 139   2.0000      -0.477711       -12.9992 
 140   2.0000      -0.470899       -12.8138 
 141   2.0000      -0.467661       -12.7257 
 142   2.0000      -0.466991       -12.7075 
 143   2.0000      -0.466049       -12.6818 
 144   2.0000      -0.463587       -12.6148 
 145   2.0000      -0.462353       -12.5813 
 146   2.0000      -0.461727       -12.5642 
 147   2.0000      -0.460304       -12.5255 
 148   2.0000      -0.456807       -12.4304 
 149   2.0000      -0.452661       -12.3175 
 150   2.0000      -0.445732       -12.1290 
 151   2.0000      -0.441952       -12.0261 
 152   2.0000      -0.440565       -11.9884 
 153   2.0000      -0.434984       -11.8365 
 154   2.0000      -0.426078       -11.5942 
 155   2.0000      -0.416536       -11.3345 
 156   2.0000      -0.413060       -11.2399 
 157   2.0000      -0.409957       -11.1555 
 158   2.0000      -0.405558       -11.0358 
 159   2.0000      -0.392175       -10.6716 
 160   2.0000      -0.390992       -10.6394 
 161   2.0000      -0.385682       -10.4949 
 162   2.0000      -0.376342       -10.2408 
 163   2.0000      -0.370333       -10.0773 
 164   2.0000      -0.363952        -9.9036 
 165   2.0000      -0.360309        -9.8045 
 166   2.0000      -0.357816        -9.7367 
 167   2.0000      -0.343999        -9.3607 
 168   2.0000      -0.342334        -9.3154 
 169   2.0000      -0.340044        -9.2531 
 170   2.0000      -0.327393        -8.9088 
 171   2.0000      -0.324321        -8.8252 
 172   2.0000      -0.321010        -8.7351 
 173   2.0000      -0.299870        -8.1599 
 174   2.0000      -0.296949        -8.0804 
 175   2.0000      -0.287376        -7.8199 
 176   2.0000      -0.242936        -6.6106 
 177   0.0000      -0.025125        -0.6837 
 178   0.0000      -0.005841        -0.1589 
 179   0.0000       0.006406         0.1743 
 180   0.0000       0.034341         0.9345 
 181   0.0000       0.042614         1.1596 
 182   0.0000       0.052275         1.4225 
 183   0.0000       0.060762         1.6534 
 184   0.0000       0.064020         1.7421 
 185   0.0000       0.075690         2.0596 
 186   0.0000       0.087117         2.3706 
 187   0.0000       0.090580         2.4648 
 188   0.0000       0.096460         2.6248 
 189   0.0000       0.098098         2.6694 
 190   0.0000       0.098327         2.6756 
 191   0.0000       0.108621         2.9557 
 192   0.0000       0.112304         3.0559 
 193   0.0000       0.112737         3.0677 
 194   0.0000       0.125589         3.4175 
 195   0.0000       0.133344         3.6285 
 196   0.0000       0.134191         3.6515 
 197   0.0000       0.135183         3.6785 
 198   0.0000       0.137073         3.7299 
 199   0.0000       0.141337         3.8460 
 200   0.0000       0.146629         3.9900 
 201   0.0000       0.148523         4.0415 
 202   0.0000       0.153477         4.1763 
 203   0.0000       0.155436         4.2296 
 204   0.0000       0.158237         4.3059 
 205   0.0000       0.161603         4.3974 
 206   0.0000       0.163042         4.4366 
 207   0.0000       0.165086         4.4922 
 208   0.0000       0.170429         4.6376 
 209   0.0000       0.172412         4.6916 
 210   0.0000       0.174681         4.7533 
 211   0.0000       0.177782         4.8377 
 212   0.0000       0.179290         4.8787 
 213   0.0000       0.181397         4.9361 
 214   0.0000       0.182787         4.9739 
 215   0.0000       0.184336         5.0160 
 216   0.0000       0.187408         5.0996 
 217   0.0000       0.188168         5.1203 
 218   0.0000       0.191836         5.2201 
 219   0.0000       0.193289         5.2597 
 220   0.0000       0.197851         5.3838 
 221   0.0000       0.200452         5.4546 
 222   0.0000       0.203127         5.5274 
 223   0.0000       0.204903         5.5757 
 224   0.0000       0.208777         5.6811 
 225   0.0000       0.209948         5.7130 
 226   0.0000       0.211919         5.7666 
 227   0.0000       0.215305         5.8587 
 228   0.0000       0.217975         5.9314 
 229   0.0000       0.220963         6.0127 
 230   0.0000       0.224059         6.0970 
 231   0.0000       0.225662         6.1406 
 232   0.0000       0.227455         6.1894 
 233   0.0000       0.228840         6.2271 
 234   0.0000       0.230840         6.2815 
 235   0.0000       0.232713         6.3324 
 236   0.0000       0.233528         6.3546 
 237   0.0000       0.237476         6.4621 
 238   0.0000       0.238306         6.4846 
 239   0.0000       0.240400         6.5416 
 240   0.0000       0.243045         6.6136 
 241   0.0000       0.245018         6.6673 
 242   0.0000       0.248299         6.7566 
 243   0.0000       0.251969         6.8564 
 244   0.0000       0.252533         6.8718 
 245   0.0000       0.253199         6.8899 
 246   0.0000       0.255558         6.9541 
 247   0.0000       0.257996         7.0204 
 248   0.0000       0.263133         7.1602 
 249   0.0000       0.263456         7.1690 
 250   0.0000       0.268642         7.3101 
 251   0.0000       0.269794         7.3415 
 252   0.0000       0.271331         7.3833 
 253   0.0000       0.272426         7.4131 
 254   0.0000       0.275899         7.5076 
 255   0.0000       0.279022         7.5926 
 256   0.0000       0.282043         7.6748 
 257   0.0000       0.283981         7.7275 
 258   0.0000       0.284813         7.7502 
 259   0.0000       0.287271         7.8171 
 260   0.0000       0.288729         7.8567 
 261   0.0000       0.290819         7.9136 
 262   0.0000       0.293770         7.9939 
 263   0.0000       0.294812         8.0222 
 264   0.0000       0.296353         8.0642 
 265   0.0000       0.297715         8.1012 
 266   0.0000       0.300738         8.1835 
 267   0.0000       0.301475         8.2035 
 268   0.0000       0.302224         8.2239 
 269   0.0000       0.304258         8.2793 
 270   0.0000       0.309687         8.4270 
 271   0.0000       0.312560         8.5052 
 272   0.0000       0.314852         8.5676 
 273   0.0000       0.315007         8.5718 
 274   0.0000       0.316917         8.6237 
 275   0.0000       0.318209         8.6589 
 276   0.0000       0.321681         8.7534 
 277   0.0000       0.324420         8.8279 
 278   0.0000       0.327502         8.9118 
 279   0.0000       0.330517         8.9938 
 280   0.0000       0.332213         9.0400 
 281   0.0000       0.335133         9.1194 
 282   0.0000       0.338901         9.2220 
 283   0.0000       0.342897         9.3307 
 284   0.0000       0.345593         9.4041 
 285   0.0000       0.346567         9.4306 
 286   0.0000       0.347241         9.4489 
 287   0.0000       0.350466         9.5367 
 288   0.0000       0.352048         9.5797 
 289   0.0000       0.353940         9.6312 
 290   0.0000       0.356746         9.7075 
 291   0.0000       0.358477         9.7547 
 292   0.0000       0.359983         9.7956 
 293   0.0000       0.362462         9.8631 
 294   0.0000       0.368822        10.0362 
 295   0.0000       0.369693        10.0599 
 296   0.0000       0.370042        10.0693 
 297   0.0000       0.372536        10.1372 
 298   0.0000       0.374836        10.1998 
 299   0.0000       0.375782        10.2256 
 300   0.0000       0.377022        10.2593 
 301   0.0000       0.378862        10.3094 
 302   0.0000       0.381089        10.3700 
 303   0.0000       0.382570        10.4103 
 304   0.0000       0.385106        10.4793 
 305   0.0000       0.388612        10.5747 
 306   0.0000       0.388927        10.5832 
 307   0.0000       0.390198        10.6178 
 308   0.0000       0.393886        10.7182 
 309   0.0000       0.394941        10.7469 
 310   0.0000       0.398117        10.8333 
 311   0.0000       0.399815        10.8795 
 312   0.0000       0.402152        10.9431 
 313   0.0000       0.407267        11.0823 
 314   0.0000       0.408801        11.1240 
 315   0.0000       0.409428        11.1411 
 316   0.0000       0.411013        11.1842 
 317   0.0000       0.415707        11.3120 
 318   0.0000       0.416619        11.3368 
 319   0.0000       0.418883        11.3984 
 320   0.0000       0.422853        11.5064 
 321   0.0000       0.424037        11.5386 
 322   0.0000       0.425536        11.5794 
 323   0.0000       0.429736        11.6937 
 324   0.0000       0.430948        11.7267 
 325   0.0000       0.434033        11.8106 
 326   0.0000       0.435241        11.8435 
 327   0.0000       0.436951        11.8900 
 328   0.0000       0.438635        11.9359 
 329   0.0000       0.439881        11.9698 
 330   0.0000       0.442180        12.0323 
 331   0.0000       0.443998        12.0818 
 332   0.0000       0.447817        12.1857 
 333   0.0000       0.448063        12.1924 
 334   0.0000       0.451181        12.2773 
 335   0.0000       0.452368        12.3095 
 336   0.0000       0.456176        12.4132 
 337   0.0000       0.457713        12.4550 
 338   0.0000       0.460799        12.5390 
[...]
 331   9.364     132.4   0.003821   0.003725   1.472186   0.289772     0.03 ( 122-> 181)    0.03 ( 119-> 152)    0.03 ( 122-> 178)
 332   9.373     132.3   0.001798   0.001897   2.022437   2.456851     0.35 ( 121-> 136)    0.13 ( 121-> 135)    0.09 ( 121-> 134)
 333   9.375     132.3   0.014506   0.013819  15.190392  15.427219     0.03 ( 122-> 185)    0.03 ( 122-> 145)    0.03 ( 122-> 144)
 334   9.388     132.1   0.000316   0.000310  -1.474918   0.484284     0.05 ( 121-> 134)    0.02 ( 121-> 171)    0.02 ( 122-> 184)
 335   9.388     132.1   0.009550   0.008158  -23.998058  -21.681902     0.09 ( 121-> 134)    0.06 ( 121-> 171)    0.02 ( 115-> 165)
 336   9.391     132.0   0.011463   0.009826  44.320585  41.040181     0.04 ( 109-> 129)    0.04 ( 122-> 182)    0.03 ( 116-> 136)
 337   9.395     132.0   0.004037   0.004168  -10.594458  -10.373188     0.03 ( 109-> 129)    0.02 ( 116-> 136)    0.02 ( 122-> 176)
 338   9.398     131.9   0.020640   0.019071  -40.848735  -39.194293     0.04 ( 122-> 150)    0.03 ( 109-> 129)    0.03 ( 122-> 179)
 339   9.408     131.8   0.008493   0.007614   5.963493   5.407713     0.06 ( 122-> 150)    0.04 ( 116-> 131)    0.03 ( 122-> 144)
 340   9.416     131.7   0.019385   0.018436  41.202420  40.178196     0.03 (  92-> 123)    0.02 ( 107-> 131)    0.02 ( 120-> 133)
 341   9.423     131.6   0.045588   0.041704  -59.928765  -57.145889     0.04 ( 122-> 184)    0.03 ( 115-> 128)    0.03 ( 119-> 153)
 342   9.427     131.5   0.031044   0.027503  -16.343088  -12.976475     0.17 ( 115-> 128)    0.02 ( 120-> 133)    0.02 ( 115-> 130)
 343   9.433     131.4   0.018079   0.016045  -9.096877  -8.351436     0.07 (  92-> 123)    0.02 (  98-> 131)    0.02 (  90-> 127)
 344   9.435     131.4   0.011693   0.010598   3.180433   3.319823     0.03 ( 104-> 129)    0.02 ( 116-> 137)    0.02 ( 114-> 127)
 345   9.440     131.3   0.005887   0.004933  24.456488  21.454751     0.03 (  92-> 123)    0.03 ( 122-> 180)    0.02 ( 113-> 133)
 346   9.449     131.2   0.032882   0.030293  -47.444949  -45.421346     0.03 ( 122-> 184)    0.02 (  96-> 128)    0.02 ( 119-> 152)
 347   9.453     131.2   0.014036   0.013053  -5.694730  -5.552188     0.07 ( 120-> 133)    0.02 ( 118-> 134)    0.02 ( 122-> 182)
 348   9.457     131.1   0.008828   0.008015  37.655165  34.442575     0.04 ( 115-> 128)    0.02 (  90-> 131)    0.02 ( 102-> 135)
 349   9.459     131.1   0.006603   0.006102  13.282709  12.720626     0.48 ( 120-> 133)    0.02 ( 121-> 150)    0.02 ( 121-> 156)
 350   9.462     131.0   0.009285   0.008709   3.793853   3.294897     0.05 ( 120-> 133)    0.04 ( 114-> 127)    0.03 ( 114-> 130)
 351   9.470     130.9   0.004053   0.003575  12.010967  10.228800     0.04 ( 120-> 133)    0.03 ( 113-> 133)    0.03 (  88-> 123)
 352   9.472     130.9   0.007026   0.006762  15.660541  15.503805     0.14 ( 115-> 128)    0.06 ( 120-> 133)    0.03 (  98-> 135)
 353   9.476     130.8   0.018212   0.016600  -29.285332  -27.970397     0.02 (  88-> 123)    0.02 ( 102-> 131)    0.02 ( 115-> 128)
 354   9.486     130.7   0.009546   0.010106  -25.221077  -25.817126     0.03 ( 115-> 128)    0.02 ( 107-> 127)    0.02 ( 114-> 127)
 355   9.503     130.5   0.015419   0.014160   3.340913   5.127659     0.03 ( 122-> 146)    0.02 ( 122-> 148)    0.02 (  96-> 128)
 356   9.507     130.4   0.001399   0.001872  -8.377346  -9.721972     0.04 ( 120-> 133)    0.03 ( 120-> 134)    0.02 ( 103-> 124)
 357   9.509     130.4   0.007022   0.006250  -0.693027  -0.378686     0.02 ( 120-> 133)    0.01 ( 122-> 184)    0.01 ( 116-> 161)
 358   9.519     130.3   0.008538   0.007879  -26.452661  -25.998873     0.01 ( 122-> 167)    0.01 ( 116-> 136)    0.01 ( 119-> 166)
 359   9.526     130.2   0.017113   0.014484   5.952281   5.431415     0.05 ( 122-> 146)    0.04 ( 122-> 148)    0.02 ( 103-> 124)
 360   9.533     130.1   0.014672   0.012561  -2.207100  -1.631139     0.07 ( 103-> 124)    0.04 ( 103-> 125)    0.02 (  92-> 123)
 361   9.537     130.0   0.012030   0.010496   0.523870  -1.439247     0.02 ( 117-> 141)    0.01 ( 116-> 136)    0.01 ( 118-> 160)
 362   9.546     129.9   0.009269   0.008360   7.591722   7.577088     0.06 ( 103-> 124)    0.03 ( 103-> 125)    0.03 ( 122-> 184)
 363   9.553     129.8   0.002049   0.001961   0.270265   0.348604     0.32 ( 120-> 134)    0.16 ( 120-> 136)    0.04 ( 115-> 145)
 364   9.560     129.7   0.011456   0.010543  -11.573681  -11.417907     0.16 ( 121-> 137)    0.08 ( 115-> 144)    0.06 ( 121-> 138)
 365   9.561     129.7   0.013892   0.012621  -11.636121  -11.478679     0.08 ( 122-> 148)    0.05 ( 122-> 146)    0.03 ( 121-> 137)
 366   9.566     129.6   0.007874   0.006707  -1.498790  -1.527139     0.18 ( 109-> 128)    0.04 ( 113-> 128)    0.03 ( 109-> 126)
 367   9.572     129.5   0.002730   0.002750   5.745318   4.861664     0.05 ( 122-> 148)    0.05 (  94-> 123)    0.03 ( 122-> 146)
 368   9.575     129.5   0.004558   0.004387  11.335770  11.562701     0.05 (  94-> 123)    0.03 ( 113-> 135)    0.03 ( 109-> 130)
 369   9.584     129.4   0.002483   0.002536   5.427132   6.344544     0.18 (  94-> 123)    0.04 (  94-> 124)    0.02 ( 109-> 128)
 370   9.588     129.3   0.024230   0.022625  -28.938821  -27.887438     0.06 ( 109-> 131)    0.03 ( 113-> 130)    0.03 ( 113-> 136)
 371   9.593     129.2   0.016694   0.015432   7.453420   7.766703     0.14 ( 121-> 137)    0.07 ( 115-> 144)    0.03 ( 121-> 139)
 372   9.596     129.2   0.015283   0.013942  -24.311516  -24.325784     0.06 ( 111-> 128)    0.03 ( 122-> 181)    0.03 ( 122-> 148)
 373   9.602     129.1   0.035697   0.033955  27.707475  25.101050     0.02 ( 118-> 163)    0.02 ( 119-> 135)    0.02 ( 117-> 154)
 374   9.605     129.1   0.007259   0.007324  15.142638  14.799553     0.06 ( 119-> 135)    0.05 ( 121-> 137)    0.05 (  94-> 123)
 375   9.608     129.0   0.002738   0.002591  -3.305023  -3.031544     0.03 ( 113-> 135)    0.02 ( 111-> 128)    0.02 ( 104-> 129)
 376   9.614     129.0   0.000379   0.000353   0.218794   0.219234     0.32 ( 120-> 134)    0.22 ( 120-> 136)    0.09 ( 120-> 135)
 377   9.618     128.9   0.000153   0.000213  -1.617895  -2.052118     0.11 ( 111-> 128)    0.08 ( 120-> 134)    0.07 ( 120-> 136)
 378   9.620     128.9   0.004179   0.004040   7.367421   7.325316     0.15 ( 119-> 135)    0.08 ( 111-> 128)    0.04 ( 115-> 129)
 379   9.626     128.8   0.001599   0.001340  -6.846583  -5.913662     0.04 ( 115-> 129)    0.03 ( 109-> 129)    0.03 ( 119-> 135)
 380   9.634     128.7   0.019893   0.017830  12.175747  11.537767     0.02 ( 115-> 129)    0.02 ( 112-> 127)    0.02 ( 118-> 140)
 381   9.639     128.6   0.005859   0.004784  15.446547  14.953416     0.05 ( 117-> 131)    0.03 ( 112-> 127)    0.03 ( 111-> 129)
 382   9.645     128.5   0.003052   0.003485   3.832250   4.609127     0.07 ( 119-> 135)    0.04 ( 105-> 136)    0.02 ( 119-> 136)
 383   9.648     128.5   0.002647   0.002528  -13.414349  -13.267593     0.04 ( 119-> 135)    0.04 (  73-> 124)    0.03 (  92-> 123)
 384   9.650     128.5   0.001508   0.001316   0.654900   0.135315     0.08 ( 119-> 135)    0.07 ( 112-> 127)    0.03 ( 103-> 124)
 385   9.653     128.4   0.004523   0.004193   5.709207   5.428087     0.09 ( 117-> 131)    0.03 ( 119-> 135)    0.03 ( 118-> 131)
 386   9.657     128.4   0.002342   0.001829  -2.635003  -2.654252     0.05 ( 109-> 129)    0.02 ( 115-> 129)    0.02 ( 111-> 137)
 387   9.662     128.3   0.002896   0.003038   3.939282   3.230895     0.06 ( 117-> 131)    0.03 ( 119-> 135)    0.02 ( 111-> 129)
 388   9.666     128.3   0.012076   0.010103  17.467680  16.269687     0.08 ( 115-> 129)    0.04 ( 111-> 129)    0.03 ( 109-> 128)
 389   9.676     128.1   0.025964   0.022792   4.709483   5.010126     0.04 ( 122-> 193)    0.03 ( 119-> 135)    0.03 ( 112-> 127)
 390   9.681     128.1   0.009832   0.008988  -8.764443  -7.758278     0.02 ( 110-> 127)    0.02 ( 117-> 131)    0.02 ( 119-> 158)
 391   9.688     128.0   0.023398   0.019933   4.389910   3.933255     0.11 (  93-> 123)    0.06 (  93-> 125)    0.03 ( 115-> 129)
 392   9.696     127.9   0.002351   0.002097  10.623034  10.051406     0.03 (  97-> 127)    0.02 (  99-> 127)    0.02 ( 112-> 127)
 393   9.702     127.8   0.003663   0.003347  -7.873826  -6.691875     0.03 (  97-> 127)    0.02 (  99-> 127)    0.02 (  93-> 123)
 394   9.704     127.8   0.009401   0.008626   5.508721   4.838272     0.04 ( 112-> 127)    0.03 ( 115-> 129)    0.02 (  93-> 123)
 395   9.708     127.7   0.011893   0.011219  -9.127950  -8.825333     0.07 ( 120-> 136)    0.04 ( 120-> 150)    0.03 ( 121-> 150)
 396   9.711     127.7   0.026094   0.022602   3.616933   4.257787     0.05 (  93-> 125)    0.05 (  93-> 123)    0.03 ( 115-> 129)
 397   9.714     127.6   0.034221   0.028492  25.689688  22.927265     0.03 ( 115-> 129)    0.02 ( 115-> 130)    0.02 (  87-> 126)
 398   9.719     127.6   0.011617   0.010159  -13.291830  -11.802929     0.02 ( 120-> 136)    0.02 ( 110-> 127)    0.01 ( 122-> 186)
 399   9.733     127.4   0.006523   0.005478  -24.061480  -22.757520     0.03 (  88-> 123)    0.02 ( 103-> 125)    0.02 ( 103-> 129)
 400   9.739     127.3   0.004872   0.004135   6.423632   5.869544     0.03 ( 110-> 127)    0.03 ( 112-> 127)    0.02 ( 111-> 127)
 401   9.744     127.2   0.042871   0.035878  -48.703326  -44.702032     0.02 (  65-> 123)    0.01 (  93-> 123)    0.01 ( 103-> 125)
 402   9.756     127.1   0.014856   0.011790  24.521672  22.261558     0.01 ( 117-> 150)    0.01 ( 104-> 130)    0.01 (  72-> 124)
 403   9.758     127.1   0.001406   0.000999  -4.552268  -3.220550     0.03 ( 101-> 124)    0.02 ( 107-> 132)    0.02 (  87-> 128)
 404   9.764     127.0   0.005667   0.004448  -9.650417  -8.046482     0.02 (  87-> 128)    0.02 (  84-> 128)    0.02 ( 101-> 124)
 405   9.770     126.9   0.001280   0.000859  -0.422062   0.671855     0.05 ( 101-> 124)    0.02 ( 101-> 125)    0.02 ( 114-> 140)
 406   9.775     126.8   0.033663   0.028922  -8.231286  -8.026031     0.02 ( 122-> 193)    0.02 ( 101-> 124)    0.02 ( 117-> 146)
 407   9.780     126.8   0.017075   0.014653   0.256752   0.628670     0.03 ( 110-> 127)    0.02 ( 107-> 132)    0.02 ( 106-> 132)
 408   9.783     126.7   0.003967   0.003069  -5.570637  -5.114162     0.06 ( 120-> 137)    0.05 ( 109-> 129)    0.02 ( 120-> 136)
 409   9.795     126.6   0.020290   0.017173  -33.281613  -29.434175     0.04 ( 113-> 134)    0.03 ( 120-> 174)    0.02 ( 114-> 140)
 410   9.799     126.5   0.005187   0.004639  -14.052375  -13.271137     0.05 ( 122-> 186)    0.04 ( 122-> 188)    0.03 ( 122-> 182)
 411   9.802     126.5   0.015549   0.013340   6.829015   7.801331     0.03 (  84-> 128)    0.02 ( 120-> 137)    0.02 (  83-> 128)
 412   9.809     126.4   0.005416   0.004973  -16.182302  -14.868013     0.20 ( 120-> 137)    0.06 ( 120-> 138)    0.03 ( 120-> 136)
 413   9.813     126.4   0.006476   0.005616  -16.285155  -15.588906     0.03 ( 120-> 137)    0.02 ( 113-> 134)    0.02 ( 113-> 136)
 414   9.816     126.3   0.004044   0.003907  -4.662809  -5.106680     0.03 ( 104-> 129)    0.02 ( 118-> 153)    0.01 ( 120-> 174)
 415   9.819     126.3   0.003592   0.003331   2.543652   2.734340     0.06 ( 120-> 137)    0.02 ( 101-> 124)    0.02 (  72-> 124)
 416   9.823     126.2   0.007878   0.007249  -18.220244  -16.880440     0.02 ( 117-> 147)    0.02 ( 113-> 134)    0.02 ( 122-> 183)
 417   9.825     126.2   0.006129   0.005391  -3.440128  -3.125306     0.03 ( 120-> 174)    0.02 ( 113-> 136)    0.02 ( 117-> 147)
 418   9.829     126.1   0.003048   0.001958   0.308848   0.424985     0.09 ( 120-> 174)    0.02 ( 101-> 124)    0.02 ( 113-> 134)
 419   9.840     126.0   0.014832   0.013557   1.188342   1.119820     0.04 ( 111-> 129)    0.04 ( 120-> 174)    0.02 ( 101-> 124)
 420   9.846     125.9   0.000150   0.000098  -0.999625  -0.993759     0.04 ( 111-> 129)    0.03 ( 120-> 137)    0.02 ( 107-> 132)
 421   9.853     125.8   0.005578   0.005052  10.347894  10.128467     0.06 ( 113-> 134)    0.01 ( 120-> 174)    0.01 ( 122-> 188)
 422   9.856     125.8   0.023570   0.019234  -12.245372  -10.678874     0.03 ( 103-> 129)    0.01 ( 119-> 163)    0.01 ( 116-> 140)
 423   9.864     125.7   0.003645   0.002877  -13.365507  -13.047344     0.02 ( 122-> 193)    0.01 ( 122-> 188)    0.01 ( 114-> 142)
 424   9.867     125.7   0.003141   0.002543   0.554165   0.251982     0.04 ( 120-> 174)    0.02 ( 120-> 137)    0.02 ( 115-> 148)
 425   9.872     125.6   0.036508   0.030626  12.840517  11.663416     0.06 (  91-> 123)    0.05 (  94-> 125)    0.04 (  94-> 124)
 426   9.877     125.5   0.036588   0.031671  -37.253424  -34.648526     0.02 ( 108-> 126)    0.02 ( 121-> 177)    0.01 ( 122-> 196)
 427   9.884     125.4   0.003761   0.002818   7.743041   7.130804     0.03 ( 108-> 126)    0.03 (  94-> 125)    0.02 (  94-> 124)
 428   9.888     125.4   0.013485   0.010823  -7.711189  -9.485057     0.03 ( 121-> 140)    0.02 ( 113-> 134)    0.01 (  81-> 123)
 429   9.891     125.3   0.001875   0.001474  -6.562506  -5.998677     0.06 (  94-> 125)    0.05 (  94-> 124)    0.03 (  91-> 123)
 430   9.898     125.3   0.022646   0.019020  49.225273  45.243165     0.03 ( 117-> 166)    0.03 ( 118-> 166)    0.02 ( 114-> 166)
 431   9.902     125.2   0.073446   0.063636  13.268438  16.715093     0.05 ( 119-> 162)    0.04 ( 122-> 170)    0.02 ( 119-> 167)
 432   9.911     125.1   0.018725   0.016707  -29.700780  -28.112862     0.06 ( 121-> 174)    0.03 ( 121-> 140)    0.03 ( 120-> 174)
 433   9.915     125.0   0.023479   0.019231  -22.505626  -19.490887     0.02 ( 101-> 125)    0.02 ( 121-> 174)    0.01 ( 119-> 161)
 434   9.929     124.9   0.004348   0.003617   7.310734   6.460457     0.01 (  94-> 125)    0.01 (  94-> 123)    0.01 (  94-> 124)
 435   9.932     124.8   0.009277   0.007073  16.183739  14.121677     0.06 ( 121-> 174)    0.02 ( 120-> 174)    0.01 ( 121-> 177)
 436   9.934     124.8   0.006123   0.005176  -6.789506  -6.188381     0.04 (  81-> 124)    0.04 (  81-> 125)    0.03 (  80-> 124)
 437   9.938     124.8   0.007955   0.007192  -9.701053  -10.087850     0.02 ( 109-> 130)    0.02 (  71-> 124)    0.01 (  71-> 123)
 438   9.942     124.7   0.003848   0.003342  -3.509597  -3.645355     0.03 ( 108-> 126)    0.02 ( 114-> 136)    0.01 ( 120-> 171)
 439   9.945     124.7   0.006312   0.005704   2.700758   3.565961     0.02 ( 122-> 188)    0.02 ( 119-> 165)    0.02 ( 122-> 189)
 440   9.950     124.6   0.014419   0.012546  -8.518470  -7.043344     0.03 ( 116-> 163)    0.03 ( 116-> 169)    0.03 ( 122-> 189)
 441   9.954     124.6   0.008946   0.008618  -2.265030  -2.305585     0.03 ( 108-> 126)    0.03 (  91-> 124)    0.03 (  94-> 123)
 442   9.958     124.5   0.002902   0.002555  12.081951  11.535465     0.03 (  91-> 124)    0.02 (  91-> 125)    0.02 ( 108-> 126)
 443   9.960     124.5   0.002305   0.002018   1.086760   0.985560     0.02 (  71-> 124)    0.02 (  71-> 123)    0.01 ( 113-> 133)
 444   9.967     124.4   0.002325   0.002061   6.610993   6.791985     0.09 ( 120-> 171)    0.03 ( 120-> 168)    0.02 ( 119-> 138)
 445   9.977     124.3   0.000484   0.000451  -1.463555  -1.254540     0.02 ( 119-> 137)    0.02 ( 119-> 138)    0.02 ( 104-> 132)
 446   9.980     124.2   0.004083   0.004077  -9.579940  -9.001412     0.06 ( 119-> 138)    0.05 ( 119-> 137)    0.03 ( 122-> 189)
 447   9.986     124.2   0.004890   0.003870  -9.001443  -9.075330     0.05 ( 119-> 138)    0.04 ( 119-> 137)    0.02 ( 119-> 139)
 448   9.989     124.1   0.000884   0.000639   3.327260   1.961606     0.08 ( 119-> 138)    0.07 ( 119-> 137)    0.03 ( 119-> 139)
 449   9.993     124.1   0.009930   0.009000  11.481332  10.866973     0.04 ( 119-> 138)    0.04 ( 119-> 137)    0.02 ( 115-> 132)

sTD-DFT done

Total run time:      211.388 sec

           *** ORCA-CIS/TD-DFT FINISHED WITHOUT ERROR ***


-------------------------------------------------------------------------------
                          DFT DISPERSION CORRECTION                            
                                                                               
                              DFTD3 V3.1  Rev 1                                
                              USING zero damping                               
-------------------------------------------------------------------------------
The omegaB97X-D3 functional is recognized. Fit by Chai et al.
Active option DFTDOPT                   ...         3   

molecular C6(AA) [au] = 93770.831256 


            DFT-D V3
 parameters
 s6 scaling factor         :     1.0000 
 rs6 scaling factor        :     1.2810 
 s8 scaling factor         :     1.0000 
 rs8 scaling factor        :     1.0940 
 Damping factor alpha6     :    14.0000 
 Damping factor alpha8     :    16.0000 
 ad hoc parameters k1-k3   :    16.0000     1.3333    -4.0000 

 Edisp/kcal,au: -31.833310709007  -0.050729604299 
 E6   /kcal   : -16.035020084 
 E8   /kcal   : -15.798290625 
 % E8         :  49.628173359 

-------------------------   ----------------
Dispersion correction           -0.050729604
-------------------------   ----------------


-------------------------   --------------------
FINAL SINGLE POINT ENERGY     -2148.935522310321
-------------------------   --------------------


                            ***************************************
                            *     ORCA property calculations      *
                            ***************************************

                                    ---------------------
                                    Active property flags
                                    ---------------------
   (+) Dipole Moment
   (+) Quadrupole Moment


------------------------------------------------------------------------------
                       ORCA ELECTRIC PROPERTIES CALCULATION
------------------------------------------------------------------------------

Dipole Moment Calculation                       ... on
Quadrupole Moment Calculation                   ... on
Polarizability Calculation                      ... off
GBWName                                         ... total_job2.gbw
Electron density file                           ... total_job2.scfp.tmp

-------------
DIPOLE MOMENT
-------------
                                X             Y             Z
Electronic contribution:     60.82955      -4.52617       4.57564
Nuclear contribution   :    -61.16723       4.23454      -4.59359
                        -----------------------------------------
Total Dipole Moment    :     -0.33769      -0.29163      -0.01795
                        -----------------------------------------
Magnitude (a.u.)       :      0.44655
Magnitude (Debye)      :      1.13504


------------------------
QUADRUPOLE MOMENT (A.U.)
------------------------

                XX           YY           ZZ           XY           XZ           YZ
  NUC     41223.05994   9458.99961   1015.17587   2799.31853   1571.37966  -1447.65516
  EL     -41381.55253  -9650.06265  -1237.60477  -2798.14090  -1567.99627   1428.88400
  TOT      -158.49259   -191.06304   -222.42890      1.17763      3.38339    -18.77115

--------------------------------------------------------------------------
[[24649,1],3]: A high-performance Open MPI point-to-point messaging module
was unable to find any relevant network interfaces:

Module: OpenFabrics (openib)
  Host: cx1-105-14-1

Another transport will be used instead, although this may result in
lower performance.
--------------------------------------------------------------------------

Timings for individual modules:

Sum of individual times         ...      697.229 sec (=  11.620 min)
GTO integral calculation        ...       14.828 sec (=   0.247 min)   2.1 %
SCF iterations                  ...      459.399 sec (=   7.657 min)  65.9 %
CIS module                      ...      223.002 sec (=   3.717 min)  32.0 %



                             ****ORCA TERMINATED NORMALLY****
TOTAL RUN TIME: 0 days 0 hours 38 minutes 15 seconds 89 msec
