
                                 *****************
                                 * O   R   C   A *
                                 *****************

           --- An Ab Initio, DFT and Semiempirical electronic structure package ---

                  #######################################################
                  #                        -***-                        #
                  #  Department of molecular theory and spectroscopy    #
                  #              Directorship: Frank Neese              #
                  # Max Planck Institute for Chemical Energy Conversion #
                  #                  D-45470 Muelheim/Ruhr              #
                  #                       Germany                       #
                  #                                                     #
                  #                  All rights reserved                #
                  #                        -***-                        #
                  #######################################################


                         Program Version 4.0.0 -  RELEASE  -


 With contributions from (in alphabetic order):
   Daniel Aravena         : Magnetic Properties
   Michael Atanasov       : Ab Initio Ligand Field Theory
   Ute Becker             : Parallelization
   Martin Brehm           : Molecular dynamics
   Dmytro Bykov           : SCF Hessian
   Vijay G. Chilkuri      : MRCI spin determinant printing
   Dipayan Datta          : RHF DLPNO-CCSD density
   Achintya Kumar Dutta   : EOM-CC, STEOM-CC
   Dmitry Ganyushin       : Spin-Orbit,Spin-Spin,Magnetic field MRCI
   Yang Guo               : DLPNO-NEVPT2, CIM, IAO-localization
   Andreas Hansen         : Spin unrestricted coupled pair/coupled cluster methods
   Lee Huntington         : MR-EOM, pCC
   Robert Izsak           : Overlap fitted RIJCOSX, COSX-SCS-MP3, EOM
   Christian Kollmar      : KDIIS, OOCD, Brueckner-CCSD(T), CCSD density
   Simone Kossmann        : Meta GGA functionals, TD-DFT gradient, OOMP2, MP2 Hessian
   Martin Krupicka        : AUTO-CI
   Dagmar Lenk            : GEPOL surface
   Dimitrios Liakos       : Extrapolation schemes; parallel MDCI
   Dimitrios Manganas     : ROCIS; embedding schemes
   Dimitrios Pantazis     : SARC Basis sets
   Taras Petrenko         : DFT Hessian,TD-DFT gradient, ASA, ECA, R-Raman, ABS, FL, XAS/XES, NRVS
   Peter Pinski           : DLPNO-MP2
   Christoph Reimann      : Effective Core Potentials
   Marius Retegan         : Local ZFS, SOC
   Christoph Riplinger    : Optimizer, TS searches, QM/MM, DLPNO-CCSD(T), (RO)-DLPNO pert. Triples
   Tobias Risthaus        : Range-separated hybrids, TD-DFT gradient, RPA, STAB
   Michael Roemelt        : Restricted open shell CIS
   Masaaki Saitow         : Open-shell DLPNO
   Barbara Sandhoefer     : DKH picture change effects
   Kantharuban Sivalingam : CASSCF convergence, NEVPT2, FIC-MRCI
   Georgi Stoychev        : AutoAux
   Boris Wezisla          : Elementary symmetry handling
   Frank Wennmohs         : Technical directorship


 We gratefully acknowledge several colleagues who have allowed us to
 interface, adapt or use parts of their codes:
   Stefan Grimme, W. Hujo, H. Kruse,             : VdW corrections, initial TS optimization,
                  C. Bannwarth                     DFT functionals, gCP, sTDA/sTD-DF
   Ed Valeev                                     : LibInt (2-el integral package), F12 methods
   Garnet Chan, S. Sharma, J. Yang, R. Olivares  : DMRG
   Ulf Ekstrom                                   : XCFun DFT Library
   Mihaly Kallay                                 : mrcc  (arbitrary order and MRCC methods)
   Jiri Pittner, Ondrej Demel                    : Mk-CCSD
   Frank Weinhold                                : gennbo (NPA and NBO analysis)
   Christopher J. Cramer and Donald G. Truhlar   : smd solvation model


 Your calculation uses the libint2 library for the computation of 2-el integrals
 For citations please refer to: http://libint.valeyev.net

 This ORCA versions uses:
   CBLAS   interface :  Fast vector & matrix operations
   LAPACKE interface :  Fast linear algebra routines
   SCALAPACK package :  Parallel linear algebra routines


Your calculation utilizes the atom-pairwise dispersion correction
with the zero-damping scheme (D30)
Cite in your paper:
S.Grimme, J.Antony, S.Ehrlich and H.Krieg, J.Chem.Phys., 132, (2010), 154104 
   

XCFun DFT library Copyright 2009-2010 Ulf Ekstrom and contributors.
See http://admol.org/xcfun for more information. This is free soft-
ware; see the source code for copying conditions. There is ABSOLUTELY
NO WARRANTY; not even for MERCHANTABILITY or FITNESS FOR A PARTICULAR
PURPOSE. For details see the documentation. Scientific users of this 
library should cite U. Ekstrom, L. Visscher, R. Bast, A. J. Thorvald-
sen and K. Ruud; J.Chem.Theor.Comp. 2010, DOI: 10.1021/ct100117s
XCFun Version 0.99 
Your calculation utilizes the basis: def2-TZVP
   F. Weigend and R. Ahlrichs, Phys. Chem. Chem. Phys. 7, 3297 (2005).

Your calculation utilizes the auxiliary basis: def2/J
   F. Weigend, Phys. Chem. Chem. Phys. 8, 1057 (2006).

================================================================================
                                        WARNINGS
                       Please study these warnings very carefully!
================================================================================

Warning: TCutStore was < 0. Adjusted to Thresh (uncritical)
INFO   : Checking CIS options ...

WARNING: CIS/ROCIS methods need fully converged wavefunctions
  ===> : Setting SCFConvForced true
         You can overwrite this default with %scf ConvForced false 


INFO   : the flag for use of LIBINT has been found!

Your calculation utilizes the atom-pairwise dispersion correction
with the zero-damping scheme (D30)
Cite in your paper:
S.Grimme, J.Antony, S.Ehrlich and H.Krieg, J.Chem.Phys., 132, (2010), 154104 
   

XCFun DFT library Copyright 2009-2010 Ulf Ekstrom and contributors.
See http://admol.org/xcfun for more information. This is free soft-
ware; see the source code for copying conditions. There is ABSOLUTELY
NO WARRANTY; not even for MERCHANTABILITY or FITNESS FOR A PARTICULAR
PURPOSE. For details see the documentation. Scientific users of this 
library should cite U. Ekstrom, L. Visscher, R. Bast, A. J. Thorvald-
sen and K. Ruud; J.Chem.Theor.Comp. 2010, DOI: 10.1021/ct100117s
XCFun Version 0.99 
Your calculation utilizes the basis: def2-TZVP
   F. Weigend and R. Ahlrichs, Phys. Chem. Chem. Phys. 7, 3297 (2005).

Your calculation utilizes the auxiliary basis: def2/J
   F. Weigend, Phys. Chem. Chem. Phys. 8, 1057 (2006).

================================================================================
                                        WARNINGS
                       Please study these warnings very carefully!
================================================================================

INFO   : Checking CIS options ...

INFO   : the flag for use of LIBINT has been found!

================================================================================
                                       INPUT FILE
================================================================================
NAME = total.inp
|  1> # 
|  2> !wB97X-D3 def2-TZVP def2/J RIJCOSX Grid5 FinalGrid6 TightSCF
|  3> %pal 
|  4>  nprocs 24
|  5> end
|  6> %tddft
|  7>   Mode sTDDFT
|  8>   nroots 2
|  9>   Ethresh 10.0
| 10>   maxcore 5000
| 11>   triplets true
| 12> end
| 13> * xyz 0 1 
| 14> C 6.80699810 2.66331192 1.45529921
| 15> C 6.53468701 1.38333102 0.97898343
| 16> C 7.57171675 0.63924981 0.38619456
| 17> C 8.87424658 1.21012304 0.33166030
| 18> C 9.14913485 2.50260245 0.80419154
| 19> C 8.09392632 3.22193465 1.35973175
| 20> C 7.68238081 -0.69539932 -0.17762771
| 21> C 9.05715776 -0.87456546 -0.50644863
| 22> N 9.74864177 0.28790470 -0.21733216
| 23> C 9.56466139 -2.07864710 -1.01782196
| 24> C 8.66816660 -3.13187572 -1.18666168
| 25> C 7.30718717 -2.97921212 -0.88656564
| 26> C 6.78154756 -1.76742125 -0.40346157
| 27> H 6.62965430 -3.81127504 -1.05600125
| 28> H 10.74428573 0.42377889 -0.34277456
| 29> H 9.02380617 -4.08448560 -1.56888487
| 30> H 5.53732666 0.96855917 1.08778563
| 31> H 10.15018357 2.92150023 0.74715172
| 32> H 8.26959993 4.22552243 1.73752606
| 33> H 6.01069408 3.24287934 1.91367087
| 34> C -0.28839435 -0.03117661 -0.23465567
| 35> N 0.44662759 1.03135390 -0.59617813
| 36> O 1.74750630 0.63341392 -0.58837670
| 37> C 1.83216411 -0.65776540 -0.22821719
| 38> C 0.56435461 -1.14764381 0.01388009
| 39> C 3.15425192 -1.26469721 -0.16140217
| 40> N 3.33164826 -2.54453059 0.19771130
| 41> O 4.66947569 -2.77835778 0.14679736
| 42> C 5.32816629 -1.66460515 -0.21696908
| 43> C 4.41182154 -0.65410999 -0.43934691
| 44> H 4.59594536 0.34917263 -0.79308191
| 45> H 0.29941449 -2.14922856 0.31948999
| 46> C -5.99358238 2.32559731 1.46912792
| 47> C -6.61200587 1.47248163 0.53305257
| 48> C -7.86002913 1.84088032 -0.00841541
| 49> C -8.46923159 3.03063716 0.38361993
| 50> C -7.84956655 3.87511711 1.30812981
| 51> C -6.61051546 3.51658212 1.84489795
| 52> N -5.98723681 0.25834550 0.14155789
| 53> C -6.77969682 -0.88209763 -0.15656007
| 54> C -6.38021029 -1.78833357 -1.15942394
| 55> C -7.16056355 -2.90670145 -1.44322410
| 56> C -8.34923107 -3.13902240 -0.74677462
| 57> C -8.75236989 -2.24119958 0.24482090
| 58> C -7.97769777 -1.12330797 0.54569242
| 59> C -4.57386824 0.18484417 0.04895558
| 60> C -3.89468145 -1.01158719 0.35840848
| 61> C -2.50906175 -1.07910726 0.26206545
| 62> C -1.75194966 0.03798072 -0.13621356
| 63> C -2.43563487 1.23079862 -0.44036205
| 64> C -3.82034459 1.30731406 -0.35462929
| 65> H -4.45772604 -1.88271788 0.68109335
| 66> H -2.00525957 -2.00977958 0.51048973
| 67> H -1.86821675 2.10133195 -0.75781552
| 68> H -4.32862508 2.23371781 -0.60706467
| 69> H -5.46437485 -1.60812849 -1.71516951
| 70> H -6.84344388 -3.59642591 -2.22116631
| 71> H -8.95542096 -4.01088967 -0.97465259
| 72> H -9.67248446 -2.41809332 0.79584253
| 73> H -8.29206024 -0.43716339 1.32703597
| 74> H -8.34274075 1.19634867 -0.73758704
| 75> H -9.43014584 3.30541620 -0.04377817
| 76> H -6.12493957 4.16459220 2.56998543
| 77> H -5.03644706 2.04811524 1.90152426
| 78> H 10.61788463 -2.18833097 -1.26026424
| 79> H -8.32750680 4.80334406 1.60733490
| 80> *
| 81> $new_job
| 82> # 
| 83> !wB97X-D3 def2-TZVP def2/J RIJCOSX Grid5 FinalGrid6 TightSCF
| 84> %pal 
| 85>  nprocs 24
| 86> end
| 87> %elprop
| 88>    dipole     true
| 89>    quadrupole true
| 90> end
| 91> %tddft
| 92>   Mode sTDDFT
| 93>   nroots 2
| 94>   Ethresh 10.0
| 95>   maxcore 5000
| 96> end
| 97> * xyz 0 1 
| 98> C 6.80699810 2.66331192 1.45529921
| 99> C 6.53468701 1.38333102 0.97898343
|100> C 7.57171675 0.63924981 0.38619456
|101> C 8.87424658 1.21012304 0.33166030
|102> C 9.14913485 2.50260245 0.80419154
|103> C 8.09392632 3.22193465 1.35973175
|104> C 7.68238081 -0.69539932 -0.17762771
|105> C 9.05715776 -0.87456546 -0.50644863
|106> N 9.74864177 0.28790470 -0.21733216
|107> C 9.56466139 -2.07864710 -1.01782196
|108> C 8.66816660 -3.13187572 -1.18666168
|109> C 7.30718717 -2.97921212 -0.88656564
|110> C 6.78154756 -1.76742125 -0.40346157
|111> H 6.62965430 -3.81127504 -1.05600125
|112> H 10.74428573 0.42377889 -0.34277456
|113> H 9.02380617 -4.08448560 -1.56888487
|114> H 5.53732666 0.96855917 1.08778563
|115> H 10.15018357 2.92150023 0.74715172
|116> H 8.26959993 4.22552243 1.73752606
|117> H 6.01069408 3.24287934 1.91367087
|118> C -0.28839435 -0.03117661 -0.23465567
|119> N 0.44662759 1.03135390 -0.59617813
|120> O 1.74750630 0.63341392 -0.58837670
|121> C 1.83216411 -0.65776540 -0.22821719
|122> C 0.56435461 -1.14764381 0.01388009
|123> C 3.15425192 -1.26469721 -0.16140217
|124> N 3.33164826 -2.54453059 0.19771130
|125> O 4.66947569 -2.77835778 0.14679736
|126> C 5.32816629 -1.66460515 -0.21696908
|127> C 4.41182154 -0.65410999 -0.43934691
|128> H 4.59594536 0.34917263 -0.79308191
|129> H 0.29941449 -2.14922856 0.31948999
|130> C -5.99358238 2.32559731 1.46912792
|131> C -6.61200587 1.47248163 0.53305257
|132> C -7.86002913 1.84088032 -0.00841541
|133> C -8.46923159 3.03063716 0.38361993
|134> C -7.84956655 3.87511711 1.30812981
|135> C -6.61051546 3.51658212 1.84489795
|136> N -5.98723681 0.25834550 0.14155789
|137> C -6.77969682 -0.88209763 -0.15656007
|138> C -6.38021029 -1.78833357 -1.15942394
|139> C -7.16056355 -2.90670145 -1.44322410
|140> C -8.34923107 -3.13902240 -0.74677462
|141> C -8.75236989 -2.24119958 0.24482090
|142> C -7.97769777 -1.12330797 0.54569242
|143> C -4.57386824 0.18484417 0.04895558
|144> C -3.89468145 -1.01158719 0.35840848
|145> C -2.50906175 -1.07910726 0.26206545
|146> C -1.75194966 0.03798072 -0.13621356
|147> C -2.43563487 1.23079862 -0.44036205
|148> C -3.82034459 1.30731406 -0.35462929
|149> H -4.45772604 -1.88271788 0.68109335
|150> H -2.00525957 -2.00977958 0.51048973
|151> H -1.86821675 2.10133195 -0.75781552
|152> H -4.32862508 2.23371781 -0.60706467
|153> H -5.46437485 -1.60812849 -1.71516951
|154> H -6.84344388 -3.59642591 -2.22116631
|155> H -8.95542096 -4.01088967 -0.97465259
|156> H -9.67248446 -2.41809332 0.79584253
|157> H -8.29206024 -0.43716339 1.32703597
|158> H -8.34274075 1.19634867 -0.73758704
|159> H -9.43014584 3.30541620 -0.04377817
|160> H -6.12493957 4.16459220 2.56998543
|161> H -5.03644706 2.04811524 1.90152426
|162> H 10.61788463 -2.18833097 -1.26026424
|163> H -8.32750680 4.80334406 1.60733490
|164> *
|165> 
|166>                          ****END OF INPUT****
================================================================================


                 $$$$$$$$$$$$$$$$$$$$$$$$$$$$$$$$$$$$$$$$$$$$$$ 
                 $ THERE ARE  2 JOBS TO BE PROCESSED THIS RUN $
                 $$$$$$$$$$$$$$$$$$$$$$$$$$$$$$$$$$$$$$$$$$$$$$ 




                 $$$$$$$$$$$$$$$$  JOB NUMBER  1 $$$$$$$$$$$$$$


                       ****************************
                       * Single Point Calculation *
                       ****************************

---------------------------------
CARTESIAN COORDINATES (ANGSTROEM)
---------------------------------
  C      6.806998    2.663312    1.455299
  C      6.534687    1.383331    0.978983
  C      7.571717    0.639250    0.386195
  C      8.874247    1.210123    0.331660
  C      9.149135    2.502602    0.804192
  C      8.093926    3.221935    1.359732
  C      7.682381   -0.695399   -0.177628
  C      9.057158   -0.874565   -0.506449
  N      9.748642    0.287905   -0.217332
  C      9.564661   -2.078647   -1.017822
  C      8.668167   -3.131876   -1.186662
  C      7.307187   -2.979212   -0.886566
  C      6.781548   -1.767421   -0.403462
  H      6.629654   -3.811275   -1.056001
  H     10.744286    0.423779   -0.342775
  H      9.023806   -4.084486   -1.568885
  H      5.537327    0.968559    1.087786
  H     10.150184    2.921500    0.747152
  H      8.269600    4.225522    1.737526
  H      6.010694    3.242879    1.913671
  C     -0.288394   -0.031177   -0.234656
  N      0.446628    1.031354   -0.596178
  O      1.747506    0.633414   -0.588377
  C      1.832164   -0.657765   -0.228217
  C      0.564355   -1.147644    0.013880
  C      3.154252   -1.264697   -0.161402
  N      3.331648   -2.544531    0.197711
  O      4.669476   -2.778358    0.146797
  C      5.328166   -1.664605   -0.216969
  C      4.411822   -0.654110   -0.439347
  H      4.595945    0.349173   -0.793082
  H      0.299414   -2.149229    0.319490
  C     -5.993582    2.325597    1.469128
  C     -6.612006    1.472482    0.533053
  C     -7.860029    1.840880   -0.008415
  C     -8.469232    3.030637    0.383620
  C     -7.849567    3.875117    1.308130
  C     -6.610515    3.516582    1.844898
  N     -5.987237    0.258346    0.141558
  C     -6.779697   -0.882098   -0.156560
  C     -6.380210   -1.788334   -1.159424
  C     -7.160564   -2.906701   -1.443224
  C     -8.349231   -3.139022   -0.746775
  C     -8.752370   -2.241200    0.244821
  C     -7.977698   -1.123308    0.545692
  C     -4.573868    0.184844    0.048956
  C     -3.894681   -1.011587    0.358408
  C     -2.509062   -1.079107    0.262065
  C     -1.751950    0.037981   -0.136214
  C     -2.435635    1.230799   -0.440362
  C     -3.820345    1.307314   -0.354629
  H     -4.457726   -1.882718    0.681093
  H     -2.005260   -2.009780    0.510490
  H     -1.868217    2.101332   -0.757816
  H     -4.328625    2.233718   -0.607065
  H     -5.464375   -1.608128   -1.715170
  H     -6.843444   -3.596426   -2.221166
  H     -8.955421   -4.010890   -0.974653
  H     -9.672484   -2.418093    0.795843
  H     -8.292060   -0.437163    1.327036
  H     -8.342741    1.196349   -0.737587
  H     -9.430146    3.305416   -0.043778
  H     -6.124940    4.164592    2.569985
  H     -5.036447    2.048115    1.901524
  H     10.617885   -2.188331   -1.260264
  H     -8.327507    4.803344    1.607335

----------------------------
CARTESIAN COORDINATES (A.U.)
----------------------------
  NO LB      ZA    FRAG     MASS         X           Y           Z
   0 C     6.0000    0    12.011   12.863362    5.032930    2.750117
   1 C     6.0000    0    12.011   12.348769    2.614117    1.850011
   2 C     6.0000    0    12.011   14.308471    1.208007    0.729802
   3 C     6.0000    0    12.011   16.769896    2.286801    0.626747
   4 C     6.0000    0    12.011   17.289359    4.729233    1.519702
   5 C     6.0000    0    12.011   15.295304    6.088574    2.569521
   6 C     6.0000    0    12.011   14.517596   -1.314114   -0.335668
   7 C     6.0000    0    12.011   17.115548   -1.652689   -0.957049
   8 N     7.0000    0    14.007   18.422263    0.544061   -0.410698
   9 C     6.0000    0    12.011   18.074591   -3.928074   -1.923405
  10 C     6.0000    0    12.011   16.380461   -5.918387   -2.242466
  11 C     6.0000    0    12.011   13.808583   -5.629895   -1.675366
  12 C     6.0000    0    12.011   12.815268   -3.339942   -0.762432
  13 H     1.0000    0     1.008   12.528231   -7.202266   -1.995553
  14 H     1.0000    0     1.008   20.303758    0.800826   -0.647750
  15 H     1.0000    0     1.008   17.052522   -7.718559   -2.964763
  16 H     1.0000    0     1.008   10.464031    1.830312    2.055617
  17 H     1.0000    0     1.008   19.181067    5.520835    1.411912
  18 H     1.0000    0     1.008   15.627279    7.985080    3.283448
  19 H     1.0000    0     1.008   11.358566    6.128154    3.616314
  20 C     6.0000    0    12.011   -0.544986   -0.058915   -0.443435
  21 N     7.0000    0    14.007    0.844004    1.948976   -1.126613
  22 O     8.0000    0    15.999    3.302308    1.196979   -1.111871
  23 C     6.0000    0    12.011    3.462288   -1.242996   -0.431268
  24 C     6.0000    0    12.011    1.066476   -2.168733    0.026230
  25 C     6.0000    0    12.011    5.960672   -2.389931   -0.305006
  26 N     7.0000    0    14.007    6.295903   -4.808466    0.373620
  27 O     8.0000    0    15.999    8.824030   -5.250335    0.277407
  28 C     6.0000    0    12.011   10.068775   -3.145648   -0.410012
  29 C     6.0000    0    12.011    8.337134   -1.236089   -0.830245
  30 H     1.0000    0     1.008    8.685078    0.659841   -1.498708
  31 H     1.0000    0     1.008    0.565811   -4.061453    0.603749
  32 C     6.0000    0    12.011  -11.326229    4.394742    2.776249
  33 C     6.0000    0    12.011  -12.494880    2.782587    1.007323
  34 C     6.0000    0    12.011  -14.853302    3.478760   -0.015903
  35 C     6.0000    0    12.011  -16.004528    5.727074    0.724937
  36 C     6.0000    0    12.011  -14.833531    7.322910    2.472007
  37 C     6.0000    0    12.011  -12.492064    6.645377    3.486352
  38 N     7.0000    0    14.007  -11.314238    0.488202    0.267506
  39 C     6.0000    0    12.011  -12.811770   -1.666923   -0.295856
  40 C     6.0000    0    12.011  -12.056850   -3.379461   -2.190994
  41 C     6.0000    0    12.011  -13.531504   -5.492870   -2.727298
  42 C     6.0000    0    12.011  -15.777760   -5.931893   -1.411200
  43 C     6.0000    0    12.011  -16.539582   -4.235253    0.462644
  44 C     6.0000    0    12.011  -15.075664   -2.122744    1.031209
  45 C     6.0000    0    12.011   -8.643358    0.349305    0.092513
  46 C     6.0000    0    12.011   -7.359881   -1.911623    0.677294
  47 C     6.0000    0    12.011   -4.741440   -2.039217    0.495232
  48 C     6.0000    0    12.011   -3.310705    0.071773   -0.257406
  49 C     6.0000    0    12.011   -4.602683    2.325872   -0.832164
  50 C     6.0000    0    12.011   -7.219405    2.470466   -0.670152
  51 H     1.0000    0     1.008   -8.423881   -3.557821    1.287080
  52 H     1.0000    0     1.008   -3.789391   -3.797933    0.964686
  53 H     1.0000    0     1.008   -3.530418    3.970942   -1.432064
  54 H     1.0000    0     1.008   -8.179916    4.221115   -1.147186
  55 H     1.0000    0     1.008  -10.326172   -3.038922   -3.241201
  56 H     1.0000    0     1.008  -12.932235   -6.796260   -4.197396
  57 H     1.0000    0     1.008  -16.923293   -7.579483   -1.841826
  58 H     1.0000    0     1.008  -18.278347   -4.569534    1.503924
  59 H     1.0000    0     1.008  -15.669723   -0.826119    2.507735
  60 H     1.0000    0     1.008  -15.765495    2.260771   -1.393838
  61 H     1.0000    0     1.008  -17.820393    6.246331   -0.082729
  62 H     1.0000    0     1.008  -11.574458    7.869939    4.856569
  63 H     1.0000    0     1.008   -9.517506    3.870377    3.593360
  64 H     1.0000    0     1.008   20.064894   -4.135346   -2.381554
  65 H     1.0000    0     1.008  -15.736707    9.077005    3.037423

--------------------------------
INTERNAL COORDINATES (ANGSTROEM)
--------------------------------
 C      0   0   0     0.000000000000     0.00000000     0.00000000
 C      1   0   0     1.392616658086     0.00000000     0.00000000
 C      2   1   0     1.407297471438   119.07447616     0.00000000
 C      3   2   1     1.423184523624   118.58593566     1.84967111
 C      4   3   2     1.403336153255   122.39885422   357.71822658
 C      5   4   3     1.392669659563   117.49120084     0.97701261
 C      3   2   1     1.453076180568   134.84594067   178.15560954
 C      7   3   2     1.424863279548   106.17193281   185.08582141
 N      8   7   3     1.383139668364   109.17438935   357.78507152
 C      8   7   3     1.403166138732   122.75014215   176.75561797
 C     10   8   7     1.393377294753   117.39287312   359.23594321
 C     11  10   8     1.402008850497   121.08599874     1.51359618
 C     12  11  10     1.406457839634   122.01469012   359.95540175
 H     12  11  10     1.086318516231   119.25222942   178.27633006
 H      9   8   7     1.012671953947   125.33850975   178.95331751
 H     11  10   8     1.086296301290   119.66013275   180.72350982
 H      2   1   3     1.085634042405   119.76974335   178.75662481
 H      5   4   3     1.086658838352   121.18577567   180.38682786
 H      6   5   4     1.086636181104   119.55324295   179.90522934
 H      1   2   3     1.086325487727   119.42896067   179.98216092
 C     17   2   1     6.057008164772   157.63635712    82.21830802
 N     21  17   2     1.341613515900    53.21385600   336.34271531
 O     22  21  17     1.360405273484   106.89865420    24.25833569
 C     23  22  21     1.343140295663   110.06030289     0.00000000
 C     24  23  22     1.380555278813   109.28423674     0.00000000
 C     24  23  22     1.456278354655   118.04536276   180.05666183
 N     26  24  23     1.341046392316   122.01385471   179.53655187
 O     27  26  24     1.359062035571   106.52180975   179.68868489
 C     28  27  26     1.344114671533   110.48571330     0.92775922
 C     29  28  27     1.382114347119   108.93259098   359.03634820
 H     30  29  28     1.079632366554   128.24791744   183.57855952
 H     25  24  23     1.080167898799   127.14881095   179.96235015
 C     21  17   2     6.403626495135   137.56757864   265.08801853
 C     33  21  17     1.409429330376    89.50960318   176.24916267
 C     34  33  21     1.409420883079   119.04323733   205.80503075
 C     35  34  33     1.392961120565   120.15833727   359.81686468
 C     36  35  34     1.397086134055   120.56669580     0.42560081
 C     33  21  17     1.392930134032   141.35700673    33.70678832
 N     34  33  21     1.420468586408   120.49262676    25.85278348
 C     39  34  33     1.420379427578   119.91668421   145.71761749
 C     40  39  34     1.409464085513   120.49424332   145.73624460
 C     41  40  39     1.392925143798   120.15980895   179.80120769
 C     42  41  40     1.397120386761   120.56959579     0.43878122
 C     43  42  41     1.397092838572   119.50155873   359.80242483
 C     44  43  42     1.392954491992   120.56827313   359.76495809
 C     39  34  33     1.418304744402   120.03922474   325.74097788
 C     46  39  34     1.410143181461   120.63778894   146.54854023
 C     47  46  39     1.390605225185   120.39173237   179.80980248
 C     48  47  46     1.407028941313   121.14633669     0.37057554
 C     49  48  47     1.408100249592   118.19201729   359.80623839
 C     50  49  48     1.389469584899   121.14430508   359.83408021
 H     47  46  39     1.086284223726   119.73185861   359.34462116
 H     48  47  46     1.087052080942   119.17852037   179.67565774
 H     50  49  48     1.086539602205   119.22579574   180.51410482
 H     51  50  49     1.086414555133   119.92522121   180.83906702
 H     41  40  39     1.086315590697   119.75535971   359.40275931
 H     42  41  40     1.086958507912   119.46199044   179.79911621
 H     43  42  41     1.086069559672   120.24975045   179.78921371
 H     44  43  42     1.086980705397   119.96509978   180.40104471
 H     45  44  43     1.086331390661   120.08688400   180.79006856
 H     35  34  33     1.086334581025   119.75238800   179.44410594
 H     36  35  34     1.086981532759   119.46377070   179.78731546
 H     38  33  21     1.086946577521   119.46170988   315.11887024
 H     33  21  17     1.086310689816    39.36752763   318.71420888
 H     10   8   7     1.086318555372   121.24133687   180.00104944
 H     37  36  35     1.086073588279   120.24688204   179.77075933

---------------------------
INTERNAL COORDINATES (A.U.)
---------------------------
 C      0   0   0     0.000000000000     0.00000000     0.00000000
 C      1   0   0     2.631664093319     0.00000000     0.00000000
 C      2   1   0     2.659406809977   119.07447616     0.00000000
 C      3   2   1     2.689428987685   118.58593566     1.84967111
 C      4   3   2     2.651921003483   122.39885422   357.71822658
 C      5   4   3     2.631764251596   117.49120084     0.97701261
 C      3   2   1     2.745916032997   134.84594067   178.15560954
 C      7   3   2     2.692601376626   106.17193281   185.08582141
 N      8   7   3     2.613755178170   109.17438935   357.78507152
 C      8   7   3     2.651599722595   122.75014215   176.75561797
 C     10   8   7     2.633101488308   117.39287312   359.23594321
 C     11  10   8     2.649412764773   121.08599874     1.51359618
 C     12  11  10     2.657820135814   122.01469012   359.95540175
 H     12  11  10     2.052844489884   119.25222942   178.27633006
 H      9   8   7     1.913672656462   125.33850975   178.95331751
 H     11  10   8     2.052802509730   119.66013275   180.72350982
 H      2   1   3     2.051551021808   119.76974335   178.75662481
 H      5   4   3     2.053487605490   121.18577567   180.38682786
 H      6   5   4     2.053444789496   119.55324295   179.90522934
 H      1   2   3     2.052857664102   119.42896067   179.98216092
 C     17   2   1    11.446086622344   157.63635712    82.21830802
 N     21  17   2     2.535282122619    53.21385600   336.34271531
 O     22  21  17     2.570793398027   106.89865420    24.25833569
 C     23  22  21     2.538167318237   110.06030289     0.00000000
 C     24  23  22     2.608871389695   109.28423674     0.00000000
 C     24  23  22     2.751967265056   118.04536276   180.05666183
 N     26  24  23     2.534210414360   122.01385471   179.53655187
 O     27  26  24     2.568255046238   106.52180975   179.68868489
 C     28  27  26     2.540008621783   110.48571330     0.92775922
 C     29  28  27     2.611817601818   108.93259098   359.03634820
 H     30  29  28     2.040209498104   128.24791744   183.57855952
 H     25  24  23     2.041221507384   127.14881095   179.96235015
 C     21  17   2    12.101100339728   137.56757864   265.08801853
 C     33  21  17     2.663435439526    89.50960318   176.24916267
 C     34  33  21     2.663419476449   119.04323733   205.80503075
 C     35  34  33     2.632315033068   120.15833727   359.81686468
 C     36  35  34     2.640110178862   120.56669580     0.42560081
 C     33  21  17     2.632256477007   141.35700673    33.70678832
 N     34  33  21     2.684296610150   120.49262676    25.85278348
 C     39  34  33     2.684128124379   119.91668421   145.71761749
 C     40  39  34     2.663501117217   120.49424332   145.73624460
 C     41  40  39     2.632247046831   120.15980895   179.80120769
 C     42  41  40     2.640174907097   120.56959579     0.43878122
 C     43  42  41     2.640122848563   119.50155873   359.80242483
 C     44  43  42     2.632302506880   120.56827313   359.76495809
 C     39  34  33     2.680207541361   120.03922474   325.74097788
 C     46  39  34     2.664784422577   120.63778894   146.54854023
 C     47  46  39     2.627863035999   120.39173237   179.80980248
 C     48  47  46     2.658899361582   121.14633669     0.37057554
 C     49  48  47     2.660923840836   118.19201729   359.80623839
 C     50  49  48     2.625716986871   121.14430508   359.83408021
 H     47  46  39     2.052779686441   119.73185861   359.34462116
 H     48  47  46     2.054230726290   119.17852037   179.67565774
 H     50  49  48     2.053262281828   119.22579574   180.51410482
 H     51  50  49     2.053025977107   119.92522121   180.83906702
 H     41  40  39     2.052838961427   119.75535971   359.40275931
 H     42  41  40     2.054053898890   119.46199044   179.79911621
 H     43  42  41     2.052374030169   120.24975045   179.78921371
 H     44  43  42     2.054095846057   119.96509978   180.40104471
 H     45  44  43     2.052868819030   120.08688400   180.79006856
 H     35  34  33     2.052874847946   119.75238800   179.44410594
 H     36  35  34     2.054097409545   119.46377070   179.78731546
 H     38  33  21     2.054031353717   119.46170988   315.11887024
 H     33  21  17     2.052829700103    39.36752763   318.71420888
 H     10   8   7     2.052844563850   121.24133687   180.00104944
 H     37  36  35     2.052381643133   120.24688204   179.77075933

---------------------
BASIS SET INFORMATION
---------------------
There are 4 groups of distinct atoms

 Group   1 Type C   : 11s6p2d1f contracted to 5s3p2d1f pattern {62111/411/11/1}
 Group   2 Type N   : 11s6p2d1f contracted to 5s3p2d1f pattern {62111/411/11/1}
 Group   3 Type H   : 5s1p contracted to 3s1p pattern {311/1}
 Group   4 Type O   : 11s6p2d1f contracted to 5s3p2d1f pattern {62111/411/11/1}

Atom   0C    basis set group =>   1
Atom   1C    basis set group =>   1
Atom   2C    basis set group =>   1
Atom   3C    basis set group =>   1
Atom   4C    basis set group =>   1
Atom   5C    basis set group =>   1
Atom   6C    basis set group =>   1
Atom   7C    basis set group =>   1
Atom   8N    basis set group =>   2
Atom   9C    basis set group =>   1
Atom  10C    basis set group =>   1
Atom  11C    basis set group =>   1
Atom  12C    basis set group =>   1
Atom  13H    basis set group =>   3
Atom  14H    basis set group =>   3
Atom  15H    basis set group =>   3
Atom  16H    basis set group =>   3
Atom  17H    basis set group =>   3
Atom  18H    basis set group =>   3
Atom  19H    basis set group =>   3
Atom  20C    basis set group =>   1
Atom  21N    basis set group =>   2
Atom  22O    basis set group =>   4
Atom  23C    basis set group =>   1
Atom  24C    basis set group =>   1
Atom  25C    basis set group =>   1
Atom  26N    basis set group =>   2
Atom  27O    basis set group =>   4
Atom  28C    basis set group =>   1
Atom  29C    basis set group =>   1
Atom  30H    basis set group =>   3
Atom  31H    basis set group =>   3
Atom  32C    basis set group =>   1
Atom  33C    basis set group =>   1
Atom  34C    basis set group =>   1
Atom  35C    basis set group =>   1
Atom  36C    basis set group =>   1
Atom  37C    basis set group =>   1
Atom  38N    basis set group =>   2
Atom  39C    basis set group =>   1
Atom  40C    basis set group =>   1
Atom  41C    basis set group =>   1
Atom  42C    basis set group =>   1
Atom  43C    basis set group =>   1
Atom  44C    basis set group =>   1
Atom  45C    basis set group =>   1
Atom  46C    basis set group =>   1
Atom  47C    basis set group =>   1
Atom  48C    basis set group =>   1
Atom  49C    basis set group =>   1
Atom  50C    basis set group =>   1
Atom  51H    basis set group =>   3
Atom  52H    basis set group =>   3
Atom  53H    basis set group =>   3
Atom  54H    basis set group =>   3
Atom  55H    basis set group =>   3
Atom  56H    basis set group =>   3
Atom  57H    basis set group =>   3
Atom  58H    basis set group =>   3
Atom  59H    basis set group =>   3
Atom  60H    basis set group =>   3
Atom  61H    basis set group =>   3
Atom  62H    basis set group =>   3
Atom  63H    basis set group =>   3
Atom  64H    basis set group =>   3
Atom  65H    basis set group =>   3
-------------------------------
AUXILIARY BASIS SET INFORMATION
-------------------------------
There are 4 groups of distinct atoms

 Group   1 Type C   : 12s5p4d2f1g contracted to 6s4p3d1f1g pattern {711111/2111/211/2/1}
 Group   2 Type N   : 12s5p4d2f1g contracted to 6s4p3d1f1g pattern {711111/2111/211/2/1}
 Group   3 Type H   : 5s2p1d contracted to 3s1p1d pattern {311/2/1}
 Group   4 Type O   : 12s5p4d2f1g contracted to 6s4p3d1f1g pattern {711111/2111/211/2/1}

Atom   0C    basis set group =>   1
Atom   1C    basis set group =>   1
Atom   2C    basis set group =>   1
Atom   3C    basis set group =>   1
Atom   4C    basis set group =>   1
Atom   5C    basis set group =>   1
Atom   6C    basis set group =>   1
Atom   7C    basis set group =>   1
Atom   8N    basis set group =>   2
Atom   9C    basis set group =>   1
Atom  10C    basis set group =>   1
Atom  11C    basis set group =>   1
Atom  12C    basis set group =>   1
Atom  13H    basis set group =>   3
Atom  14H    basis set group =>   3
Atom  15H    basis set group =>   3
Atom  16H    basis set group =>   3
Atom  17H    basis set group =>   3
Atom  18H    basis set group =>   3
Atom  19H    basis set group =>   3
Atom  20C    basis set group =>   1
Atom  21N    basis set group =>   2
Atom  22O    basis set group =>   4
Atom  23C    basis set group =>   1
Atom  24C    basis set group =>   1
Atom  25C    basis set group =>   1
Atom  26N    basis set group =>   2
Atom  27O    basis set group =>   4
Atom  28C    basis set group =>   1
Atom  29C    basis set group =>   1
Atom  30H    basis set group =>   3
Atom  31H    basis set group =>   3
Atom  32C    basis set group =>   1
Atom  33C    basis set group =>   1
Atom  34C    basis set group =>   1
Atom  35C    basis set group =>   1
Atom  36C    basis set group =>   1
Atom  37C    basis set group =>   1
Atom  38N    basis set group =>   2
Atom  39C    basis set group =>   1
Atom  40C    basis set group =>   1
Atom  41C    basis set group =>   1
Atom  42C    basis set group =>   1
Atom  43C    basis set group =>   1
Atom  44C    basis set group =>   1
Atom  45C    basis set group =>   1
Atom  46C    basis set group =>   1
Atom  47C    basis set group =>   1
Atom  48C    basis set group =>   1
Atom  49C    basis set group =>   1
Atom  50C    basis set group =>   1
Atom  51H    basis set group =>   3
Atom  52H    basis set group =>   3
Atom  53H    basis set group =>   3
Atom  54H    basis set group =>   3
Atom  55H    basis set group =>   3
Atom  56H    basis set group =>   3
Atom  57H    basis set group =>   3
Atom  58H    basis set group =>   3
Atom  59H    basis set group =>   3
Atom  60H    basis set group =>   3
Atom  61H    basis set group =>   3
Atom  62H    basis set group =>   3
Atom  63H    basis set group =>   3
Atom  64H    basis set group =>   3
Atom  65H    basis set group =>   3
-------------------------
ECP PARAMETER INFORMATION
-------------------------



--------------------------------------------------------------------------
[[33127,1],3]: A high-performance Open MPI point-to-point messaging module
was unable to find any relevant network interfaces:

Module: OpenFabrics (openib)
  Host: cx1-105-9-1

Another transport will be used instead, although this may result in
lower performance.
--------------------------------------------------------------------------


           ************************************************************
           *        Program running with 24 parallel MPI-processes    *
           *              working on a common directory               *
           ************************************************************
------------------------------------------------------------------------------
                           ORCA GTO INTEGRAL CALCULATION
                           -- RI-GTO INTEGRALS CHOSEN --
------------------------------------------------------------------------------

                         BASIS SET STATISTICS AND STARTUP INFO

Gaussian basis set:
 # of primitive gaussian shells          ...  984
 # of primitive gaussian functions       ... 2124
 # of contracted shells                  ...  558
 # of contracted basis functions         ... 1446
 Highest angular momentum                ...    3
 Maximum contraction depth               ...    6
Auxiliary gaussian basis set:
 # of primitive gaussian shells          ... 1200
 # of primitive gaussian functions       ... 3324
 # of contracted shells                  ...  750
 # of contracted aux-basis functions     ... 2322
 Highest angular momentum                ...    4
 Maximum contraction depth               ...    7
Ratio of auxiliary to basis functions    ...  1.61
Integral package used                  ... LIBINT
 One Electron integrals                  
   ECP integrals                         ... done
 Ordering auxiliary basis shells         ... done
 Integral threshhold             Thresh  ...  2.500e-11
 Primitive cut-off               TCut    ...  2.500e-12
 Pre-screening matrix                    ... done
 Shell pair data                         ... 
 Ordering of the shell pairs             ... done (   0.025 sec) 67252 of 155961 pairs
 Determination of significant pairs      ... done (   0.001 sec)
 Creation of shell pair data             ... done (   0.017 sec)
 Storage of shell pair data              ... done (   0.167 sec)
 Shell pair data done in (   0.209 sec)
 Computing two index integrals           ... done
 Cholesky decomposition of the V-matrix  ... done


Timings:
 Total evaluation time                   ...   9.061 sec (  0.151 min)
 One electron matrix time                ...   2.917 sec (  0.049 min) = 32.2%
 Schwartz matrix evaluation time         ...   4.161 sec (  0.069 min) = 45.9%
 Two index repulsion integral time       ...   0.743 sec (  0.012 min) =  8.2%
 Cholesky decomposition of V             ...   0.982 sec (  0.016 min) = 10.8%
 Three index repulsion integral time     ...   0.000 sec (  0.000 min) =  0.0%

--------------------------------------------------------------------------
[[33076,1],3]: A high-performance Open MPI point-to-point messaging module
was unable to find any relevant network interfaces:

Module: OpenFabrics (openib)
  Host: cx1-105-9-1

Another transport will be used instead, although this may result in
lower performance.
--------------------------------------------------------------------------


           ************************************************************
           *        Program running with 24 parallel MPI-processes    *
           *              working on a common directory               *
           ************************************************************
-------------------------------------------------------------------------------
                                 ORCA SCF
-------------------------------------------------------------------------------

------------
SCF SETTINGS
------------
Hamiltonian:
 Density Functional     Method          .... DFT(GTOs)
 Exchange Functional    Exchange        .... WB97X-D3
 Correlation Functional Correlation     .... WB97X-D3
 Gradients option       PostSCFGGA      .... off
 Hybrid DFT is turned on
   Fraction HF Exchange ScalHFX         ....  0.195728
   Scaling of DF-GGA-X  ScalDFX         ....  0.000000
   Scaling of DF-GGA-C  ScalDFC         ....  1.000000
   Scaling of DF-LDA-C  ScalLDAC        ....  1.000000
   Perturbative correction              ....  0.000000
 Long-range corrected/Screened/Range-Separated Hybrid DFT is turned on
   Amount of maximum screened exact exchange              ....  0.804272
   Range separation parameter mu (erf(mu*r12)/r12)        ....  0.250000
 RI-approximation to the Coulomb term is turned on
   Number of auxiliary basis functions  .... 2322
   RIJ-COSX (HFX calculated with COS-X)).... on


General Settings:
 Integral files         IntName         .... total
 Hartree-Fock type      HFTyp           .... RHF
 Total Charge           Charge          ....    0
 Multiplicity           Mult            ....    1
 Number of Electrons    NEL             ....  284
 Basis Dimension        Dim             .... 1446
 Nuclear Repulsion      ENuc            ....   4001.8872815551 Eh

Convergence Acceleration:
 DIIS                   CNVDIIS         .... on
   Start iteration      DIISMaxIt       ....    12
   Startup error        DIISStart       ....  0.200000
   # of expansion vecs  DIISMaxEq       ....     5
   Bias factor          DIISBfac        ....   1.050
   Max. coefficient     DIISMaxC        ....  10.000
 Newton-Raphson         CNVNR           .... off
 SOSCF                  CNVSOSCF        .... on
   Start iteration      SOSCFMaxIt      ....   150
   Startup grad/error   SOSCFStart      ....  0.003300
 Level Shifting         CNVShift        .... on
   Level shift para.    LevelShift      ....    0.2500
   Turn off err/grad.   ShiftErr        ....    0.0010
 Zerner damping         CNVZerner       .... off
 Static damping         CNVDamp         .... on
   Fraction old density DampFac         ....    0.7000
   Max. Damping (<1)    DampMax         ....    0.9800
   Min. Damping (>=0)   DampMin         ....    0.0000
   Turn off err/grad.   DampErr         ....    0.1000
 Fernandez-Rico         CNVRico         .... off

SCF Procedure:
 Maximum # iterations   MaxIter         ....   125
 SCF integral mode      SCFMode         .... Direct
   Integral package                     .... LIBINT
 Reset frequeny         DirectResetFreq ....    20
 Integral Threshold     Thresh          ....  2.500e-11 Eh
 Primitive CutOff       TCut            ....  2.500e-12 Eh

Convergence Tolerance:
 Convergence Check Mode ConvCheckMode   .... Total+1el-Energy
 Convergence forced     ConvForced      .... 1
 Energy Change          TolE            ....  1.000e-08 Eh
 1-El. energy change                    ....  1.000e-05 Eh
 Orbital Gradient       TolG            ....  1.000e-05
 Orbital Rotation angle TolX            ....  1.000e-05
 DIIS Error             TolErr          ....  5.000e-07


Diagonalization of the overlap matrix:
Smallest eigenvalue                        ... 6.128e-06
Time for diagonalization                   ...    0.685 sec
Threshold for overlap eigenvalues          ... 1.000e-08
Number of eigenvalues below threshold      ... 0
Time for construction of square roots      ...    0.806 sec
Total time needed                          ...    1.506 sec

-------------------
DFT GRID GENERATION
-------------------

General Integration Accuracy     IntAcc      ...  5.010
Radial Grid Type                 RadialGrid  ... Gauss-Chebyshev
Angular Grid (max. acc.)         AngularGrid ... Lebedev-434
Angular grid pruning method      GridPruning ... 3 (G Style)
Weight generation scheme         WeightScheme... Becke
Basis function cutoff            BFCut       ...    1.0000e-11
Integration weight cutoff        WCut        ...    1.0000e-14
Grids for H and He will be reduced by one unit

# of grid points (after initial pruning)     ... 609780 (   0.0 sec)
# of grid points (after weights+screening)   ... 528099 (   3.0 sec)
nearest neighbour list constructed           ...    0.0 sec
Grid point re-assignment to atoms done       ...    0.3 sec
Grid point division into batches done        ...    6.5 sec
Reduced shell lists constructed in    7.9 sec

Total number of grid points                  ...   528099
Total number of batches                      ...     8284
Average number of points per batch           ...       63
Average number of grid points per atom       ...     8002
Average number of shells per batch           ...   147.31 (26.40%)
Average number of basis functions per batch  ...   381.82 (26.41%)
Average number of large shells per batch     ...   100.50 (68.22%)
Average number of large basis fcns per batch ...   261.67 (68.53%)
Maximum spatial batch extension              ...   8.57, 16.09, 14.09 au
Average spatial batch extension              ...   0.05,  0.06,  0.06 au

Time for grid setup =   11.590 sec

------------------------------
INITIAL GUESS: MODEL POTENTIAL
------------------------------
Loading Hartree-Fock densities                     ... done
Calculating cut-offs                               ... done
Setting up the integral package                    ... done
Initializing the effective Hamiltonian             ... done
Starting the Coulomb interaction                   ... done (   1.1 sec)
Reading the grid                                   ... done
Mapping shells                                     ... done
Starting the XC term evaluation                    ... done (   3.1 sec)
  promolecular density results
     # of electrons  =    283.987778601
     EX              =   -233.727112926
     EC              =     -9.586153312
     EX+EC           =   -243.313266239
Transforming the Hamiltonian                       ... done (   0.4 sec)
Diagonalizing the Hamiltonian                      ... done (   0.7 sec)
Back transforming the eigenvectors                 ... done (   0.2 sec)
Now organizing SCF variables                       ... done
                      ------------------
                      INITIAL GUESS DONE (  17.6 sec)
                      ------------------
--------------------
COSX GRID GENERATION
--------------------

General Integration Accuracy     IntAcc      ...  3.340
Radial Grid Type                 RadialGrid  ... Gauss-Chebyshev
Angular Grid (max. acc.)         AngularGrid ... Lebedev-50
Angular grid pruning method      GridPruning ... 3 (G Style)
Weight generation scheme         WeightScheme... Becke
Basis function cutoff            BFCut       ...    1.0000e-11
Integration weight cutoff        WCut        ...    1.0000e-14
Grids for H and He will be reduced by one unit

# of grid points (after initial pruning)     ...  31984 (   0.0 sec)
# of grid points (after weights+screening)   ...  28874 (   0.2 sec)
nearest neighbour list constructed           ...    0.0 sec
Grid point re-assignment to atoms done       ...    0.0 sec
Grid point division into batches done        ...    0.0 sec
Reduced shell lists constructed in    0.1 sec

Total number of grid points                  ...    28874
Total number of batches                      ...      482
Average number of points per batch           ...       59
Average number of grid points per atom       ...      437
Average number of shells per batch           ...   161.59 (28.96%)
Average number of basis functions per batch  ...   422.77 (29.24%)
Average number of large shells per batch     ...   112.55 (69.65%)
Average number of large basis fcns per batch ...   297.36 (70.34%)
Maximum spatial batch extension              ...   5.16, 11.25, 23.62 au
Average spatial batch extension              ...   0.12,  0.15,  0.24 au

Overlap Fitting                  UseSFitting ... on
Constructing numerical overlap ... done (      0.2 sec)
Inverting numerical overlap    ... done (      0.3 sec)
Obtaining analytic overlap     ... done (      0.0 sec)
Final contraction and storage  ... done (      1.0 sec)


General Integration Accuracy     IntAcc      ...  3.670
Radial Grid Type                 RadialGrid  ... Gauss-Chebyshev
Angular Grid (max. acc.)         AngularGrid ... Lebedev-50
Angular grid pruning method      GridPruning ... 3 (G Style)
Weight generation scheme         WeightScheme... Becke
Basis function cutoff            BFCut       ...    1.0000e-11
Integration weight cutoff        WCut        ...    1.0000e-14
Grids for H and He will be reduced by one unit

# of grid points (after initial pruning)     ...  40164 (   0.0 sec)
# of grid points (after weights+screening)   ...  36142 (   0.2 sec)
nearest neighbour list constructed           ...    0.0 sec
Grid point re-assignment to atoms done       ...    0.0 sec
Grid point division into batches done        ...    0.0 sec
Reduced shell lists constructed in    0.2 sec

Total number of grid points                  ...    36142
Total number of batches                      ...      593
Average number of points per batch           ...       60
Average number of grid points per atom       ...      548
Average number of shells per batch           ...   163.23 (29.25%)
Average number of basis functions per batch  ...   427.31 (29.55%)
Average number of large shells per batch     ...   113.85 (69.75%)
Average number of large basis fcns per batch ...   301.00 (70.44%)
Maximum spatial batch extension              ...   6.46,  8.05, 16.82 au
Average spatial batch extension              ...   0.12,  0.14,  0.20 au

Overlap Fitting                  UseSFitting ... on
Constructing numerical overlap ... done (      0.2 sec)
Inverting numerical overlap    ... done (      0.3 sec)
Obtaining analytic overlap     ... done (      0.0 sec)
Final contraction and storage  ... done (      1.0 sec)


General Integration Accuracy     IntAcc      ...  4.010
Radial Grid Type                 RadialGrid  ... Gauss-Chebyshev
Angular Grid (max. acc.)         AngularGrid ... Lebedev-110
Angular grid pruning method      GridPruning ... 3 (G Style)
Weight generation scheme         WeightScheme... Becke
Basis function cutoff            BFCut       ...    1.0000e-11
Integration weight cutoff        WCut        ...    1.0000e-14
Grids for H and He will be reduced by one unit

# of grid points (after initial pruning)     ...  77596 (   0.0 sec)
# of grid points (after weights+screening)   ...  69294 (   0.4 sec)
nearest neighbour list constructed           ...    0.0 sec
Grid point re-assignment to atoms done       ...    0.0 sec
Grid point division into batches done        ...    0.1 sec
Reduced shell lists constructed in    0.3 sec

Total number of grid points                  ...    69294
Total number of batches                      ...     1114
Average number of points per batch           ...       62
Average number of grid points per atom       ...     1050
Average number of shells per batch           ...   160.60 (28.78%)
Average number of basis functions per batch  ...   420.60 (29.09%)
Average number of large shells per batch     ...   112.12 (69.81%)
Average number of large basis fcns per batch ...   296.04 (70.38%)
Maximum spatial batch extension              ...   7.88, 14.85, 18.44 au
Average spatial batch extension              ...   0.10,  0.11,  0.13 au

Overlap Fitting                  UseSFitting ... on
Constructing numerical overlap ... done (      0.3 sec)
Inverting numerical overlap    ... done (      0.3 sec)
Obtaining analytic overlap     ... done (      0.0 sec)
Final contraction and storage  ... done (      1.0 sec)

Time for X-Grid setup             =    6.787 sec
--------------
SCF ITERATIONS
--------------
ITER       Energy         Delta-E        Max-DP      RMS-DP      [F,P]     Damp
               ***  Starting incremental Fock matrix formation  ***
  0  -1755.0334094350   0.000000000000 0.06027487  0.00049036  0.1525411 0.7000
  1  -1755.3110641197  -0.277654684686 0.05257880  0.00040617  0.0958328 0.7000
                               ***Turning on DIIS***
  2  -1755.4631192070  -0.152055087271 0.10722889  0.00093323  0.0545478 0.0000
  3  -1755.7226752373  -0.259556030358 0.02310550  0.00021606  0.0308889 0.0000
  4  -1755.7530096180  -0.030334380626 0.00817482  0.00008057  0.0075074 0.0000
  5  -1755.7539338006  -0.000924182600 0.00358453  0.00003318  0.0041447 0.0000
                      *** Initiating the SOSCF procedure ***
                           *** Shutting down DIIS ***
                      *** Re-Reading the Fockian *** 
                      *** Removing any level shift *** 
ITER      Energy       Delta-E        Grad      Rot      Max-DP    RMS-DP
  6  -1755.75413809  -0.0002042908  0.001257  0.001257  0.003163  0.000027
               *** Restarting incremental Fock matrix formation ***
  7  -1755.75421532  -0.0000772306  0.000334  0.000947  0.015840  0.000112
  8  -1755.75421839  -0.0000030692  0.000368  0.000591  0.004394  0.000032
  9  -1755.75422682  -0.0000084324  0.000046  0.000187  0.002979  0.000021
 10  -1755.75422733  -0.0000005107  0.000038  0.000063  0.000837  0.000006
 11  -1755.75422766  -0.0000003289  0.000006  0.000022  0.000412  0.000002
 12  -1755.75422764   0.0000000224  0.000004  0.000007  0.000267  0.000001
                  ***Gradient check signals convergence***
              ***Rediagonalizing the Fockian in SOSCF/NRSCF***

               *****************************************************
               *                     SUCCESS                       *
               *           SCF CONVERGED AFTER  13 CYCLES          *
               *****************************************************

Old exchange energy                            =    -76.974677313 Eh
New exchange energy                            =    -76.974327182 Eh
Exchange energy change after final integration =      0.000350131 Eh
Total energy after final integration           =  -1755.753877487 Eh
Final COS-X integration done in                =    77.185 sec

----------------
TOTAL SCF ENERGY
----------------

Total Energy       :        -1755.75387749 Eh          -47776.49192 eV

Components:
Nuclear Repulsion  :         4001.88728156 Eh          108896.88914 eV
Electronic Energy  :        -5757.64115904 Eh         -156673.38106 eV
One Electron Energy:       -10338.72874375 Eh         -281331.11171 eV
Two Electron Energy:         4581.08758470 Eh          124657.73066 eV

Virial components:
Potential Energy   :        -3502.37760779 Eh          -95304.53990 eV
Kinetic Energy     :         1746.62373031 Eh           47528.04798 eV
Virial Ratio       :            2.00522731


DFT components:
N(Alpha)           :      141.999865216639 electrons
N(Beta)            :      141.999865216639 electrons
N(Total)           :      283.999730433279 electrons
E(XC)              :     -171.849744491713 Eh       

---------------
SCF CONVERGENCE
---------------

  Last Energy change         ...    2.1826e-08  Tolerance :   1.0000e-08
  Last MAX-Density change    ...    2.2336e-14  Tolerance :   1.0000e-07
  Last RMS-Density change    ...    8.9955e-17  Tolerance :   5.0000e-09
  Last Orbital Gradient      ...    1.3675e-06  Tolerance :   1.0000e-05
  Last Orbital Rotation      ...    4.4720e-06  Tolerance :   1.0000e-05

             **** THE GBW FILE WAS UPDATED (total.gbw) ****
             **** DENSITY FILE WAS UPDATED (total.scfp.tmp) ****
             **** ENERGY FILE WAS UPDATED (total.en.tmp) ****
----------------
ORBITAL ENERGIES
----------------

  NO   OCC          E(Eh)            E(eV) 
   0   2.0000     -19.337889      -526.2107 
   1   2.0000     -19.332917      -526.0754 
   2   2.0000     -14.482803      -394.0971 
   3   2.0000     -14.475092      -393.8873 
   4   2.0000     -14.472220      -393.8091 
   5   2.0000     -14.464520      -393.5996 
   6   2.0000     -10.367385      -282.1109 
   7   2.0000     -10.366312      -282.0817 
   8   2.0000     -10.343635      -281.4646 
   9   2.0000     -10.337161      -281.2884 
  10   2.0000     -10.336838      -281.2797 
  11   2.0000     -10.333020      -281.1758 
  12   2.0000     -10.332704      -281.1672 
  13   2.0000     -10.332680      -281.1665 
  14   2.0000     -10.330403      -281.1046 
  15   2.0000     -10.318711      -280.7864 
  16   2.0000     -10.305729      -280.4331 
  17   2.0000     -10.300803      -280.2991 
  18   2.0000     -10.299092      -280.2526 
  19   2.0000     -10.298512      -280.2368 
  20   2.0000     -10.297087      -280.1980 
  21   2.0000     -10.295771      -280.1622 
  22   2.0000     -10.295363      -280.1511 
  23   2.0000     -10.295010      -280.1415 
  24   2.0000     -10.292402      -280.0705 
  25   2.0000     -10.291422      -280.0438 
  26   2.0000     -10.290733      -280.0251 
  27   2.0000     -10.290647      -280.0227 
  28   2.0000     -10.290147      -280.0091 
  29   2.0000     -10.288179      -279.9556 
  30   2.0000     -10.287526      -279.9378 
  31   2.0000     -10.287499      -279.9371 
  32   2.0000     -10.287086      -279.9258 
  33   2.0000     -10.287018      -279.9240 
  34   2.0000     -10.286867      -279.9199 
  35   2.0000     -10.284967      -279.8682 
  36   2.0000     -10.284811      -279.8639 
  37   2.0000     -10.284546      -279.8567 
  38   2.0000     -10.284488      -279.8551 
  39   2.0000     -10.281416      -279.7716 
  40   2.0000     -10.281061      -279.7619 
  41   2.0000     -10.280981      -279.7597 
  42   2.0000      -1.285535       -34.9812 
  43   2.0000      -1.279284       -34.8111 
  44   2.0000      -1.112161       -30.2635 
  45   2.0000      -1.093953       -29.7680 
  46   2.0000      -1.011451       -27.5230 
  47   2.0000      -0.999243       -27.1908 
  48   2.0000      -0.983261       -26.7559 
  49   2.0000      -0.979257       -26.6469 
  50   2.0000      -0.973828       -26.4992 
  51   2.0000      -0.972099       -26.4522 
  52   2.0000      -0.957172       -26.0460 
  53   2.0000      -0.934873       -25.4392 
  54   2.0000      -0.914861       -24.8946 
  55   2.0000      -0.905132       -24.6299 
  56   2.0000      -0.883404       -24.0387 
  57   2.0000      -0.882021       -24.0010 
  58   2.0000      -0.876968       -23.8635 
  59   2.0000      -0.866874       -23.5888 
  60   2.0000      -0.864970       -23.5370 
  61   2.0000      -0.863601       -23.4998 
  62   2.0000      -0.851783       -23.1782 
  63   2.0000      -0.845635       -23.0109 
  64   2.0000      -0.830879       -22.6094 
  65   2.0000      -0.777530       -21.1577 
  66   2.0000      -0.772326       -21.0161 
  67   2.0000      -0.763126       -20.7657 
  68   2.0000      -0.747160       -20.3313 
  69   2.0000      -0.740340       -20.1457 
  70   2.0000      -0.728569       -19.8254 
  71   2.0000      -0.722237       -19.6531 
  72   2.0000      -0.719259       -19.5720 
  73   2.0000      -0.716901       -19.5079 
  74   2.0000      -0.714102       -19.4317 
  75   2.0000      -0.706133       -19.2149 
  76   2.0000      -0.692802       -18.8521 
  77   2.0000      -0.685405       -18.6508 
  78   2.0000      -0.673560       -18.3285 
  79   2.0000      -0.666146       -18.1268 
  80   2.0000      -0.644186       -17.5292 
  81   2.0000      -0.641892       -17.4668 
  82   2.0000      -0.636870       -17.3301 
  83   2.0000      -0.620299       -16.8792 
  84   2.0000      -0.614172       -16.7125 
  85   2.0000      -0.604598       -16.4520 
  86   2.0000      -0.603981       -16.4352 
  87   2.0000      -0.597114       -16.2483 
  88   2.0000      -0.588030       -16.0011 
  89   2.0000      -0.586890       -15.9701 
  90   2.0000      -0.578180       -15.7331 
  91   2.0000      -0.573375       -15.6023 
  92   2.0000      -0.567832       -15.4515 
  93   2.0000      -0.565830       -15.3970 
  94   2.0000      -0.558965       -15.2102 
  95   2.0000      -0.556529       -15.1439 
  96   2.0000      -0.552713       -15.0401 
  97   2.0000      -0.550477       -14.9792 
  98   2.0000      -0.545612       -14.8468 
  99   2.0000      -0.539533       -14.6814 
 100   2.0000      -0.539144       -14.6708 
 101   2.0000      -0.532714       -14.4959 
 102   2.0000      -0.530242       -14.4286 
 103   2.0000      -0.528841       -14.3905 
 104   2.0000      -0.526429       -14.3249 
 105   2.0000      -0.525596       -14.3022 
 106   2.0000      -0.524127       -14.2622 
 107   2.0000      -0.521588       -14.1931 
 108   2.0000      -0.507233       -13.8025 
 109   2.0000      -0.496496       -13.5103 
 110   2.0000      -0.490903       -13.3581 
 111   2.0000      -0.484127       -13.1738 
 112   2.0000      -0.478494       -13.0205 
 113   2.0000      -0.475270       -12.9328 
 114   2.0000      -0.474029       -12.8990 
 115   2.0000      -0.473103       -12.8738 
 116   2.0000      -0.469343       -12.7715 
 117   2.0000      -0.459080       -12.4922 
 118   2.0000      -0.456194       -12.4137 
 119   2.0000      -0.452059       -12.3012 
 120   2.0000      -0.450316       -12.2537 
 121   2.0000      -0.448389       -12.2013 
 122   2.0000      -0.441810       -12.0223 
 123   2.0000      -0.439883       -11.9698 
 124   2.0000      -0.438503       -11.9323 
 125   2.0000      -0.435579       -11.8527 
 126   2.0000      -0.426623       -11.6090 
 127   2.0000      -0.413020       -11.2389 
 128   2.0000      -0.402709       -10.9583 
 129   2.0000      -0.400575       -10.9002 
 130   2.0000      -0.392552       -10.6819 
 131   2.0000      -0.375600       -10.2206 
 132   2.0000      -0.355336        -9.6692 
 133   2.0000      -0.351148        -9.5552 
 134   2.0000      -0.346142        -9.4190 
 135   2.0000      -0.343057        -9.3351 
 136   2.0000      -0.341485        -9.2923 
 137   2.0000      -0.336330        -9.1520 
 138   2.0000      -0.329435        -8.9644 
 139   2.0000      -0.305430        -8.3112 
 140   2.0000      -0.294897        -8.0245 
 141   2.0000      -0.265796        -7.2327 
 142   0.0000      -0.000158        -0.0043 
 143   0.0000       0.014431         0.3927 
 144   0.0000       0.030523         0.8306 
 145   0.0000       0.042048         1.1442 
 146   0.0000       0.044418         1.2087 
 147   0.0000       0.049982         1.3601 
 148   0.0000       0.068265         1.8576 
 149   0.0000       0.068631         1.8676 
 150   0.0000       0.076108         2.0710 
 151   0.0000       0.086785         2.3615 
 152   0.0000       0.092296         2.5115 
 153   0.0000       0.105765         2.8780 
 154   0.0000       0.113041         3.0760 
 155   0.0000       0.122063         3.3215 
 156   0.0000       0.130219         3.5434 
 157   0.0000       0.133911         3.6439 
 158   0.0000       0.134548         3.6612 
 159   0.0000       0.136244         3.7074 
 160   0.0000       0.144577         3.9341 
 161   0.0000       0.145977         3.9722 
 162   0.0000       0.149121         4.0578 
 163   0.0000       0.150576         4.0974 
 164   0.0000       0.155941         4.2434 
 165   0.0000       0.159517         4.3407 
 166   0.0000       0.163426         4.4470 
 167   0.0000       0.165720         4.5095 
 168   0.0000       0.167934         4.5697 
 169   0.0000       0.172055         4.6819 
 170   0.0000       0.175997         4.7891 
 171   0.0000       0.177221         4.8224 
 172   0.0000       0.179696         4.8898 
 173   0.0000       0.180626         4.9151 
 174   0.0000       0.183858         5.0030 
 175   0.0000       0.184902         5.0314 
 176   0.0000       0.189755         5.1635 
 177   0.0000       0.193344         5.2612 
 178   0.0000       0.196608         5.3500 
 179   0.0000       0.199027         5.4158 
 180   0.0000       0.201993         5.4965 
 181   0.0000       0.206125         5.6090 
 182   0.0000       0.211271         5.7490 
 183   0.0000       0.213588         5.8120 
 184   0.0000       0.218239         5.9386 
 185   0.0000       0.219637         5.9766 
 186   0.0000       0.224833         6.1180 
 187   0.0000       0.231228         6.2920 
 188   0.0000       0.232235         6.3194 
 189   0.0000       0.238496         6.4898 
 190   0.0000       0.242578         6.6009 
 191   0.0000       0.247512         6.7351 
 192   0.0000       0.248346         6.7579 
 193   0.0000       0.254267         6.9190 
 194   0.0000       0.258011         7.0208 
 195   0.0000       0.262314         7.1379 
 196   0.0000       0.263359         7.1664 
 197   0.0000       0.264911         7.2086 
 198   0.0000       0.266421         7.2497 
 199   0.0000       0.271959         7.4004 
 200   0.0000       0.273676         7.4471 
 201   0.0000       0.274820         7.4782 
 202   0.0000       0.276316         7.5189 
 203   0.0000       0.279527         7.6063 
 204   0.0000       0.281566         7.6618 
 205   0.0000       0.284469         7.7408 
 206   0.0000       0.287495         7.8231 
 207   0.0000       0.290137         7.8950 
 208   0.0000       0.290652         7.9090 
 209   0.0000       0.292441         7.9577 
 210   0.0000       0.294324         8.0090 
 211   0.0000       0.295977         8.0539 
 212   0.0000       0.299102         8.1390 
 213   0.0000       0.299732         8.1561 
 214   0.0000       0.300610         8.1800 
 215   0.0000       0.301792         8.2122 
 216   0.0000       0.307189         8.3590 
 217   0.0000       0.309651         8.4260 
 218   0.0000       0.312639         8.5074 
 219   0.0000       0.316144         8.6027 
 220   0.0000       0.318323         8.6620 
 221   0.0000       0.319333         8.6895 
 222   0.0000       0.321169         8.7394 
 223   0.0000       0.323762         8.8100 
 224   0.0000       0.327115         8.9013 
 225   0.0000       0.328570         8.9408 
 226   0.0000       0.332246         9.0409 
 227   0.0000       0.335790         9.1373 
 228   0.0000       0.338140         9.2012 
 229   0.0000       0.340346         9.2613 
 230   0.0000       0.341277         9.2866 
 231   0.0000       0.342350         9.3158 
 232   0.0000       0.344437         9.3726 
 233   0.0000       0.348519         9.4837 
 234   0.0000       0.350788         9.5454 
 235   0.0000       0.354033         9.6337 
 236   0.0000       0.358193         9.7469 
 237   0.0000       0.362120         9.8538 
 238   0.0000       0.364123         9.9083 
 239   0.0000       0.366994         9.9864 
 240   0.0000       0.367672        10.0049 
 241   0.0000       0.371392        10.1061 
 242   0.0000       0.373434        10.1616 
 243   0.0000       0.375192        10.2095 
 244   0.0000       0.375702        10.2234 
 245   0.0000       0.378085        10.2882 
 246   0.0000       0.382314        10.4033 
 247   0.0000       0.382597        10.4110 
 248   0.0000       0.386288        10.5114 
 249   0.0000       0.388617        10.5748 
 250   0.0000       0.390316        10.6210 
 251   0.0000       0.392808        10.6889 
 252   0.0000       0.396929        10.8010 
 253   0.0000       0.398026        10.8308 
 254   0.0000       0.400787        10.9060 
 255   0.0000       0.404566        11.0088 
 256   0.0000       0.407116        11.0782 
 257   0.0000       0.409099        11.1321 
 258   0.0000       0.412426        11.2227 
 259   0.0000       0.420623        11.4457 
 260   0.0000       0.422438        11.4951 
 261   0.0000       0.423040        11.5115 
 262   0.0000       0.425023        11.5655 
 263   0.0000       0.429222        11.6797 
 264   0.0000       0.431156        11.7323 
 265   0.0000       0.431386        11.7386 
 266   0.0000       0.435809        11.8590 
 267   0.0000       0.438205        11.9242 
 268   0.0000       0.440815        11.9952 
 269   0.0000       0.443308        12.0630 
 270   0.0000       0.444329        12.0908 
 271   0.0000       0.446098        12.1389 
 272   0.0000       0.450774        12.2662 
 273   0.0000       0.453141        12.3306 
 274   0.0000       0.455231        12.3875 
 275   0.0000       0.456973        12.4349 
 276   0.0000       0.459284        12.4978 
 277   0.0000       0.462216        12.5776 
 278   0.0000       0.464352        12.6357 
 279   0.0000       0.464703        12.6452 
 280   0.0000       0.467822        12.7301 
 281   0.0000       0.470818        12.8116 
 282   0.0000       0.472785        12.8651 
 283   0.0000       0.476977        12.9792 
 284   0.0000       0.478646        13.0246 
 285   0.0000       0.479293        13.0422 
 286   0.0000       0.480356        13.0711 
 287   0.0000       0.482911        13.1407 
 288   0.0000       0.485354        13.2072 
 289   0.0000       0.488207        13.2848 
 290   0.0000       0.488482        13.2923 
 291   0.0000       0.490280        13.3412 
 292   0.0000       0.493603        13.4316 
 293   0.0000       0.494821        13.4648 
 294   0.0000       0.497173        13.5288 
 295   0.0000       0.498043        13.5524 
 296   0.0000       0.503917        13.7123 
 297   0.0000       0.504491        13.7279 
 298   0.0000       0.506099        13.7716 
 299   0.0000       0.509794        13.8722 
 300   0.0000       0.513009        13.9597 
 301   0.0000       0.514400        13.9975 
 302   0.0000       0.515252        14.0207 
 303   0.0000       0.516590        14.0571 
 304   0.0000       0.519907        14.1474 
 305   0.0000       0.522046        14.2056 
 306   0.0000       0.527125        14.3438 
 307   0.0000       0.529219        14.4008 
 308   0.0000       0.531179        14.4541 
 309   0.0000       0.534671        14.5491 
 310   0.0000       0.537817        14.6348 
 311   0.0000       0.538495        14.6532 
 312   0.0000       0.540543        14.7089 
 313   0.0000       0.543647        14.7934 
 314   0.0000       0.544264        14.8102 
 315   0.0000       0.551977        15.0201 
 316   0.0000       0.554531        15.0895 
 317   0.0000       0.555281        15.1100 
 318   0.0000       0.558594        15.2001 
 319   0.0000       0.561252        15.2724 
 320   0.0000       0.563789        15.3415 
 321   0.0000       0.566101        15.4044 
 322   0.0000       0.566273        15.4091 
 323   0.0000       0.567484        15.4420 
 324   0.0000       0.569993        15.5103 
 325   0.0000       0.573955        15.6181 
 326   0.0000       0.575593        15.6627 
 327   0.0000       0.577007        15.7012 
 328   0.0000       0.579855        15.7787 
 329   0.0000       0.580231        15.7889 
 330   0.0000       0.584734        15.9114 
 331   0.0000       0.586313        15.9544 
 332   0.0000       0.589468        16.0402 
 333   0.0000       0.590802        16.0766 
 334   0.0000       0.593772        16.1574 
 335   0.0000       0.596504        16.2317 
 336   0.0000       0.598800        16.2942 
 337   0.0000       0.605422        16.4744 
 338   0.0000       0.606701        16.5092 
 339   0.0000       0.608814        16.5667 
 340   0.0000       0.612408        16.6645 
 341   0.0000       0.616206        16.7678 
 342   0.0000       0.622672        16.9438 
 343   0.0000       0.625262        17.0142 
 344   0.0000       0.626319        17.0430 
 345   0.0000       0.635218        17.2852 
 346   0.0000       0.642105        17.4726 
 347   0.0000       0.644460        17.5367 
 348   0.0000       0.648517        17.6470 
 349   0.0000       0.651556        17.7297 
 350   0.0000       0.655268        17.8308 
 351   0.0000       0.663079        18.0433 
 352   0.0000       0.667453        18.1623 
 353   0.0000       0.670212        18.2374 
 354   0.0000       0.673392        18.3239 
 355   0.0000       0.676433        18.4067 
 356   0.0000       0.678413        18.4605 
 357   0.0000       0.679857        18.4998 
 358   0.0000       0.681515        18.5450 
 359   0.0000       0.682079        18.5603 
 360   0.0000       0.688143        18.7253 
 361   0.0000       0.691757        18.8237 
 362   0.0000       0.698148        18.9976 
 363   0.0000       0.700939        19.0735 
 364   0.0000       0.706700        19.2303 
 365   0.0000       0.708707        19.2849 
 366   0.0000       0.714869        19.4526 
 367   0.0000       0.716885        19.5074 
 368   0.0000       0.720216        19.5981 
 369   0.0000       0.721527        19.6337 
 370   0.0000       0.725175        19.7330 
 371   0.0000       0.726574        19.7711 
 372   0.0000       0.728289        19.8178 
 373   0.0000       0.730611        19.8809 
 374   0.0000       0.733763        19.9667 
 375   0.0000       0.736309        20.0360 
 376   0.0000       0.738527        20.0963 
 377   0.0000       0.744657        20.2632 
 378   0.0000       0.748017        20.3546 
 379   0.0000       0.751332        20.4448 
 380   0.0000       0.753382        20.5006 
 381   0.0000       0.756446        20.5839 
 382   0.0000       0.759240        20.6600 
 383   0.0000       0.762418        20.7465 
 384   0.0000       0.764619        20.8063 
 385   0.0000       0.769051        20.9269 
 386   0.0000       0.771295        20.9880 
 387   0.0000       0.771701        20.9990 
 388   0.0000       0.774805        21.0835 
 389   0.0000       0.775624        21.1058 
 390   0.0000       0.779760        21.2184 
 391   0.0000       0.780039        21.2259 
 392   0.0000       0.783863        21.3300 
 393   0.0000       0.787659        21.4333 
 394   0.0000       0.792013        21.5518 
 395   0.0000       0.792430        21.5631 
 396   0.0000       0.795964        21.6593 
 397   0.0000       0.796378        21.6705 
 398   0.0000       0.798982        21.7414 
 399   0.0000       0.804243        21.8846 
 400   0.0000       0.807541        21.9743 
 401   0.0000       0.810403        22.0522 
 402   0.0000       0.813606        22.1393 
 403   0.0000       0.816497        22.2180 
 404   0.0000       0.819437        22.2980 
 405   0.0000       0.819621        22.3030 
 406   0.0000       0.827237        22.5103 
 407   0.0000       0.827836        22.5266 
 408   0.0000       0.834562        22.7096 
 409   0.0000       0.838148        22.8072 
 410   0.0000       0.840376        22.8678 
 411   0.0000       0.842748        22.9323 
 412   0.0000       0.848610        23.0919 
 413   0.0000       0.852723        23.2038 
 414   0.0000       0.854969        23.2649 
 415   0.0000       0.856346        23.3024 
 416   0.0000       0.859842        23.3975 
 417   0.0000       0.861145        23.4329 
 418   0.0000       0.865753        23.5583 
 419   0.0000       0.867629        23.6094 
 420   0.0000       0.872990        23.7553 
 421   0.0000       0.876594        23.8533 
 422   0.0000       0.880143        23.9499 
 423   0.0000       0.884595        24.0711 
 424   0.0000       0.889372        24.2010 
 425   0.0000       0.895344        24.3635 
 426   0.0000       0.897633        24.4258 
 427   0.0000       0.900531        24.5047 
 428   0.0000       0.903202        24.5774 
 429   0.0000       0.909537        24.7498 
 430   0.0000       0.912467        24.8295 
 431   0.0000       0.917355        24.9625 
 432   0.0000       0.918999        25.0072 
 433   0.0000       0.923974        25.1426 
 434   0.0000       0.928321        25.2609 
 435   0.0000       0.931620        25.3507 
 436   0.0000       0.933331        25.3972 
 437   0.0000       0.935300        25.4508 
 438   0.0000       0.938295        25.5323 
 439   0.0000       0.941619        25.6227 
 440   0.0000       0.948604        25.8128 
 441   0.0000       0.950855        25.8741 
 442   0.0000       0.952332        25.9143 
 443   0.0000       0.956518        26.0282 
 444   0.0000       0.957913        26.0661 
 445   0.0000       0.964327        26.2407 
 446   0.0000       0.967340        26.3227 
 447   0.0000       0.971483        26.4354 
 448   0.0000       0.977180        26.5904 
 449   0.0000       0.980743        26.6874 
 450   0.0000       0.981450        26.7066 
 451   0.0000       0.985610        26.8198 
 452   0.0000       0.987061        26.8593 
 453   0.0000       0.991890        26.9907 
 454   0.0000       0.992403        27.0046 
 455   0.0000       0.998272        27.1644 
 456   0.0000       1.000164        27.2158 
 457   0.0000       1.005724        27.3671 
 458   0.0000       1.011261        27.5178 
 459   0.0000       1.012143        27.5418 
 460   0.0000       1.021507        27.7966 
 461   0.0000       1.025151        27.8958 
 462   0.0000       1.031149        28.0590 
 463   0.0000       1.036332        28.2000 
 464   0.0000       1.040493        28.3133 
 465   0.0000       1.043330        28.3905 
 466   0.0000       1.051284        28.6069 
 467   0.0000       1.053875        28.6774 
 468   0.0000       1.055917        28.7330 
 469   0.0000       1.061121        28.8746 
 470   0.0000       1.068645        29.0793 
 471   0.0000       1.070343        29.1255 
 472   0.0000       1.080775        29.4094 
 473   0.0000       1.084233        29.5035 
 474   0.0000       1.088121        29.6093 
 475   0.0000       1.088875        29.6298 
 476   0.0000       1.092871        29.7385 
 477   0.0000       1.096719        29.8432 
 478   0.0000       1.098601        29.8944 
 479   0.0000       1.105296        30.0766 
 480   0.0000       1.108106        30.1531 
 481   0.0000       1.117620        30.4120 
 482   0.0000       1.123240        30.5649 
 483   0.0000       1.127027        30.6680 
 484   0.0000       1.131571        30.7916 
 485   0.0000       1.138338        30.9758 
 486   0.0000       1.140979        31.0476 
 487   0.0000       1.144466        31.1425 
 488   0.0000       1.147018        31.2120 
 489   0.0000       1.148675        31.2570 
 490   0.0000       1.150655        31.3109 
 491   0.0000       1.153424        31.3863 
 492   0.0000       1.159397        31.5488 
 493   0.0000       1.162711        31.6390 
 494   0.0000       1.164972        31.7005 
 495   0.0000       1.171705        31.8837 
 496   0.0000       1.182853        32.1871 
 497   0.0000       1.183662        32.2091 
 498   0.0000       1.191205        32.4143 
 499   0.0000       1.192889        32.4602 
 500   0.0000       1.194143        32.4943 
 501   0.0000       1.199918        32.6514 
 502   0.0000       1.202717        32.7276 
 503   0.0000       1.208419        32.8828 
 504   0.0000       1.211437        32.9649 
 505   0.0000       1.217193        33.1215 
 506   0.0000       1.220130        33.2014 
 507   0.0000       1.228235        33.4220 
 508   0.0000       1.231419        33.5086 
 509   0.0000       1.235215        33.6119 
 510   0.0000       1.238095        33.6903 
 511   0.0000       1.241329        33.7783 
 512   0.0000       1.246065        33.9072 
 513   0.0000       1.253098        34.0985 
 514   0.0000       1.256795        34.1991 
 515   0.0000       1.263242        34.3746 
 516   0.0000       1.265758        34.4430 
 517   0.0000       1.270687        34.5771 
 518   0.0000       1.274027        34.6680 
 519   0.0000       1.276171        34.7264 
 520   0.0000       1.285013        34.9670 
 521   0.0000       1.290387        35.1132 
 522   0.0000       1.295491        35.2521 
 523   0.0000       1.300257        35.3818 
 524   0.0000       1.306728        35.5579 
 525   0.0000       1.310061        35.6486 
 526   0.0000       1.311264        35.6813 
 527   0.0000       1.314585        35.7717 
 528   0.0000       1.315618        35.7998 
 529   0.0000       1.319631        35.9090 
 530   0.0000       1.320585        35.9349 
 531   0.0000       1.326001        36.0823 
 532   0.0000       1.326588        36.0983 
 533   0.0000       1.329215        36.1698 
[...]
 161   8.780     141.2   0.014436   0.013489   4.690081   4.891164     0.08 (  90-> 117)    0.06 (  90-> 109)    0.02 (  89-> 111)
 162   8.791     141.0   0.004629   0.003666  -20.241056  -17.686076     0.05 (  71-> 100)    0.03 (  94-> 124)    0.03 (  90-> 117)
 163   8.815     140.7   0.096649   0.091037  35.224173  37.682478     0.07 (  84->  97)    0.05 (  84-> 101)    0.05 (  68->  96)
 164   8.818     140.6   0.013312   0.012612   6.222296   8.200572     0.08 (  92-> 100)    0.06 (  88-> 100)    0.04 (  91-> 100)
 165   8.826     140.5   0.004304   0.004416  -10.097005  -6.854245     0.09 (  89-> 109)    0.07 (  89-> 118)    0.06 (  92-> 100)
 166   8.833     140.4   0.008856   0.008600  -24.475539  -24.689908     0.07 (  94-> 102)    0.06 (  88-> 100)    0.06 (  92-> 100)
 167   8.842     140.2   0.007900   0.006385  -22.021261  -20.386390     0.05 (  92-> 100)    0.04 (  86-> 117)    0.04 (  88-> 100)
 168   8.851     140.1   0.005883   0.005223  -19.017227  -17.586335     0.12 (  86-> 109)    0.05 (  83-> 103)    0.05 (  86-> 117)
 169   8.865     139.9   0.018592   0.017869  40.947970  39.665624     0.05 (  86-> 117)    0.04 (  86-> 105)    0.04 (  86->  98)
 170   8.867     139.8   0.028646   0.026140  -38.721394  -36.065601     0.03 (  86-> 109)    0.03 (  89-> 116)    0.03 (  90-> 116)
 171   8.879     139.6   0.057083   0.052497  -23.567936  -20.365765     0.10 (  93-> 126)    0.08 (  93-> 124)    0.02 (  94-> 128)
 172   8.887     139.5   0.004233   0.004072  -3.021726  -3.062780     0.28 (  94-> 102)    0.04 (  82->  99)    0.04 (  92-> 101)
 173   8.908     139.2   0.002602   0.002530   0.337353   0.233554     0.09 (  92-> 104)    0.07 (  92-> 106)    0.06 (  88-> 106)
 174   8.912     139.1   0.012640   0.012426  -38.990066  -39.285391     0.13 (  82-> 103)    0.08 (  94-> 102)    0.08 (  82->  99)
 175   8.939     138.7   0.017243   0.015194  -5.441626  -3.757933     0.22 (  94-> 102)    0.05 (  85-> 107)    0.04 (  93-> 126)
 176   8.949     138.5   0.012797   0.011945  12.362869  10.879518     0.06 (  85-> 107)    0.05 (  93-> 126)    0.05 (  74-> 101)
 177   8.961     138.4   0.014847   0.013956  15.052062  14.482364     0.10 (  95-> 134)    0.07 (  87-> 109)    0.06 (  74-> 101)
 178   8.966     138.3   0.007066   0.005371  -2.712563  -1.625911     0.11 (  87->  98)    0.08 (  87->  97)    0.04 (  86-> 117)
 179   8.967     138.3   0.006122   0.005407  34.408971  31.938070     0.09 (  95-> 134)    0.08 (  87-> 109)    0.04 (  94-> 102)
 180   8.979     138.1   0.010691   0.010892  -48.815478  -49.640984     0.10 (  87->  98)    0.08 (  87->  97)    0.05 (  95-> 134)
 181   8.989     137.9   0.026815   0.024784  54.918683  53.619668     0.11 (  91->  99)    0.04 (  85->  98)    0.03 (  84-> 104)
 182   9.022     137.4   0.002650   0.001854  11.516675   9.214943     0.15 (  91->  99)    0.06 (  92->  99)    0.04 (  88-> 103)
 183   9.029     137.3   0.008227   0.007684  -9.237211  -8.735544     0.53 (  93-> 103)    0.05 (  95-> 108)    0.04 (  93->  99)
 184   9.033     137.3   0.000943   0.000938   0.360531   0.329956     0.34 (  95-> 108)    0.10 (  93-> 103)    0.08 (  95-> 107)
 185   9.036     137.2   0.007433   0.006518  11.458124  10.906971     0.04 (  95-> 137)    0.03 (  91->  99)    0.02 (  90-> 123)
 186   9.047     137.0   0.004769   0.003970  -5.963524  -5.788533     0.07 (  89-> 123)    0.07 (  89-> 122)    0.06 (  89-> 129)
 187   9.053     137.0   0.003778   0.004229   3.645902   4.591915     0.09 (  85-> 107)    0.04 (  94-> 133)    0.04 (  84-> 107)
 188   9.084     136.5   0.023191   0.021080   8.847310   8.760357     0.09 (  66->  99)    0.09 (  83-> 102)    0.06 (  71-> 103)
 189   9.089     136.4   0.051558   0.046357  45.193455  42.972397     0.10 (  83-> 102)    0.06 (  66->  99)    0.05 (  80-> 102)
 190   9.092     136.4   0.004281   0.003954   5.646314   6.143482     0.08 (  90-> 123)    0.06 (  90-> 129)    0.05 (  86-> 123)
 191   9.122     135.9   0.014762   0.014631  11.515361  13.082810     0.04 (  93-> 136)    0.03 (  91-> 113)    0.03 (  81->  98)
 192   9.127     135.8   0.044552   0.038309  -43.849865  -39.156168     0.13 (  95-> 138)    0.09 (  95-> 139)    0.05 (  93-> 103)
 193   9.141     135.6   0.011181   0.010573  44.223114  43.318378     0.06 (  85->  98)    0.05 (  81-> 101)    0.04 (  95-> 138)
 194   9.148     135.5   0.003381   0.002891  -9.892412  -8.448386     0.13 (  88->  99)    0.11 (  93-> 103)    0.11 (  92-> 103)
 195   9.160     135.4   0.020698   0.017627  39.870054  36.080800     0.08 (  95-> 107)    0.05 (  95-> 142)    0.03 (  95-> 141)
 196   9.175     135.1   0.004120   0.003845  -5.780252  -5.600098     0.57 (  95-> 107)    0.02 (  95-> 108)    0.01 (  95-> 141)
 197   9.188     134.9   0.009331   0.008132  13.225465  12.712173     0.14 (  95-> 107)    0.08 (  94-> 105)    0.04 (  95-> 108)
 198   9.191     134.9   0.001329   0.001378   0.505562   0.950194     0.52 (  93-> 102)    0.03 (  95-> 107)    0.02 (  93-> 125)
 199   9.196     134.8   0.013028   0.011872  19.402859  19.101567     0.09 (  81->  98)    0.04 (  81->  97)    0.04 (  81->  96)
 200   9.213     134.6   0.006576   0.005635  -2.634982  -1.333849     0.27 (  93-> 102)    0.04 (  94-> 105)    0.02 (  93-> 128)
 201   9.216     134.5   0.032089   0.029061  -18.545009  -17.083753     0.08 (  94-> 105)    0.03 (  85->  98)    0.03 (  95-> 139)
 202   9.222     134.5   0.004073   0.003446  -1.984884  -1.928647     0.09 (  74-> 104)    0.05 (  94-> 105)    0.05 (  74-> 101)
 203   9.229     134.3   0.020381   0.018261  -31.033566  -31.973514     0.13 (  95-> 139)    0.10 (  95-> 138)    0.06 (  94-> 105)
 204   9.243     134.1   0.010053   0.010309   3.604800   3.876281     0.07 (  84-> 106)    0.07 (  94-> 135)    0.04 (  75-> 101)
 205   9.255     134.0   0.022423   0.019772  -38.705157  -36.673993     0.06 (  64->  97)    0.03 (  79->  98)    0.03 (  83->  96)
 206   9.271     133.7   0.011438   0.011018  35.172107  34.506417     0.09 (  94-> 105)    0.05 (  94-> 135)    0.04 (  85-> 107)
 207   9.290     133.5   0.006505   0.005882   8.084420   7.703539     0.10 (  74-> 104)    0.09 (  85->  98)    0.07 (  85->  97)
 208   9.300     133.3   0.005536   0.005257  14.317508  14.350312     0.08 (  70-> 101)    0.08 (  74-> 104)    0.04 (  76-> 104)
 209   9.307     133.2   0.031714   0.028301  -55.128836  -53.267901     0.06 (  89-> 101)    0.04 (  64->  97)    0.04 (  90-> 101)
 210   9.312     133.1   0.003783   0.003192  -2.662458  -2.508644     0.06 (  94-> 105)    0.04 (  85->  98)    0.04 (  76-> 104)
 211   9.332     132.9   0.003316   0.003025  -4.762904  -4.949571     0.08 (  66-> 100)    0.07 (  75-> 101)    0.04 (  95-> 142)
 212   9.344     132.7   0.005211   0.004483  26.078883  24.318335     0.14 (  83->  96)    0.04 (  80->  98)    0.03 (  84-> 106)
 213   9.363     132.4   0.003306   0.002576   2.990869   2.657390     0.08 (  87-> 116)    0.06 (  92-> 117)    0.02 (  92-> 118)
 214   9.380     132.2   0.050998   0.045987  -1.907469  -3.410664     0.11 (  95-> 142)    0.07 (  66-> 100)    0.04 (  95-> 145)
 215   9.386     132.1   0.000717   0.000706  -0.780393  -0.762661     0.39 (  91-> 100)    0.28 (  88-> 100)    0.19 (  90-> 100)
 216   9.408     131.8   0.023340   0.021417  -15.550937  -14.109092     0.04 (  66-> 100)    0.03 (  79->  96)    0.02 (  94-> 128)
 217   9.420     131.6   0.030617   0.026757  35.050801  34.327672     0.04 (  89-> 101)    0.04 (  90-> 101)    0.02 (  75-> 101)
 218   9.429     131.5   0.018461   0.014871  -56.916228  -50.868364     0.06 (  93-> 136)    0.04 (  89-> 101)    0.03 (  93-> 105)
 219   9.433     131.4   0.013950   0.012353  16.554639  16.074401     0.08 (  89-> 101)    0.05 (  90-> 101)    0.03 (  86-> 101)
 220   9.456     131.1   0.007153   0.005682  22.471715  19.299486     0.05 (  87-> 118)    0.03 (  95-> 144)    0.03 (  92-> 132)
 221   9.463     131.0   0.024148   0.020515  -12.107608  -10.957082     0.06 (  85-> 108)    0.04 (  93-> 105)    0.04 (  81-> 101)
 222   9.480     130.8   0.010894   0.009622  -24.704035  -23.522969     0.03 (  81->  97)    0.02 (  95-> 128)    0.02 (  95-> 137)
 223   9.488     130.7   0.012133   0.010441  10.490740   9.493532     0.21 (  92-> 102)    0.13 (  88-> 102)    0.10 (  91-> 102)
 224   9.495     130.6   0.008704   0.006825  24.406070  20.374501     0.07 (  93-> 135)    0.04 (  93-> 105)    0.02 (  84-> 104)
 225   9.507     130.4   0.002505   0.001752  -5.774687  -4.745621     0.04 (  81->  97)    0.04 (  95-> 110)    0.03 (  85-> 108)
 226   9.520     130.2   0.004146   0.002854  -11.550966  -8.833625     0.09 (  93-> 135)    0.07 (  91-> 110)    0.02 (  91-> 113)
 227   9.529     130.1   0.015430   0.013772  -20.391793  -20.119977     0.18 (  93-> 105)    0.09 (  93-> 135)    0.04 (  94-> 135)
 228   9.534     130.0   0.009330   0.007943  -22.420461  -22.611072     0.04 (  87-> 118)    0.03 (  95-> 137)    0.03 (  95-> 140)
 229   9.557     129.7   0.064484   0.058723  -19.247841  -17.968383     0.04 (  79->  98)    0.03 (  93-> 105)    0.03 (  64->  98)
 230   9.562     129.7   0.006592   0.005934  21.176775  19.701601     0.15 (  93-> 105)    0.04 (  93-> 135)    0.03 (  95-> 110)
 231   9.577     129.5   0.009497   0.008693  -4.348369  -1.234248     0.05 (  95-> 145)    0.04 (  90-> 101)    0.04 (  66-> 100)
 232   9.589     129.3   0.090379   0.082990  -2.476268  -2.454599     0.03 (  90-> 101)    0.03 (  88-> 108)    0.03 (  94-> 140)
 233   9.595     129.2   0.011574   0.011159  -14.788500  -14.290254     0.04 (  93-> 136)    0.03 (  77->  98)    0.03 (  79->  98)
 234   9.614     129.0   0.001931   0.001599   1.085439   1.126124     0.05 (  86-> 118)    0.03 (  89-> 118)    0.03 (  86-> 111)
 235   9.623     128.8   0.044193   0.040322  17.585043  16.882554     0.04 (  94-> 138)    0.03 (  95-> 110)    0.03 (  91-> 113)
 236   9.626     128.8   0.013522   0.012312  -14.642314  -13.984841     0.13 (  90-> 101)    0.13 (  89-> 101)    0.05 (  88-> 101)
 237   9.631     128.7   0.002142   0.002178  -4.173500  -4.046395     0.11 (  65-> 100)    0.02 (  66-> 105)    0.02 (  89-> 101)
 238   9.637     128.7   0.003252   0.002967  -2.317865  -2.250186     0.27 (  65-> 100)    0.06 (  66-> 105)    0.03 (  66->  98)
 239   9.642     128.6   0.005562   0.005083  -1.698659  -1.438965     0.12 (  90-> 101)    0.12 (  89-> 101)    0.06 (  88-> 101)
 240   9.652     128.5   0.016781   0.015950   9.288152   8.120868     0.05 (  85-> 108)    0.05 (  89-> 131)    0.03 (  89-> 127)
 241   9.654     128.4   0.000695   0.000692  -2.031480  -3.286645     0.04 (  75-> 104)    0.04 (  89-> 131)    0.03 (  68-> 101)
 242   9.673     128.2   0.009682   0.008333  -7.086784  -6.536466     0.03 (  94-> 138)    0.03 (  92-> 128)    0.03 (  84-> 108)
 243   9.685     128.0   0.002969   0.002370   7.730762   6.760056     0.09 (  90-> 130)    0.03 (  86-> 116)    0.02 (  86-> 118)
 244   9.692     127.9   0.023255   0.019354  -21.150497  -19.380447     0.16 (  95-> 110)    0.04 (  92-> 104)    0.04 (  91-> 104)
 245   9.698     127.8   0.004753   0.004418  -1.738729  -1.939323     0.06 (  94-> 136)    0.06 (  85-> 108)    0.05 (  84-> 106)
 246   9.724     127.5   0.002064   0.001541  -1.571272  -1.846916     0.17 (  78->  97)    0.10 (  78->  98)    0.06 (  73-> 100)
 247   9.727     127.5   0.005220   0.003791  -6.139544  -5.134392     0.03 (  95-> 110)    0.03 (  90-> 134)    0.03 (  95-> 113)
 248   9.729     127.4   0.030767   0.027301  -14.173690  -13.516796     0.04 (  65->  99)    0.04 (  66-> 102)    0.04 (  65-> 103)
 249   9.741     127.3   0.021978   0.019780  -0.646606  -0.747223     0.09 (  77->  97)    0.05 (  73->  98)    0.04 (  73->  97)
 250   9.746     127.2   0.005583   0.005251  17.717932  16.349068     0.06 (  89-> 129)    0.05 (  89-> 134)    0.05 (  89-> 112)
 251   9.752     127.1   0.005784   0.004260  -1.048519   0.524968     0.05 (  77->  97)    0.04 (  95-> 110)    0.04 (  89-> 127)
 252   9.755     127.1   0.009327   0.008516   0.514251   1.238978     0.09 (  91-> 104)    0.06 (  88-> 104)    0.06 (  92-> 104)
 253   9.769     126.9   0.039013   0.034592  -11.987472  -10.588247     0.07 (  90-> 111)    0.05 (  90-> 121)    0.03 (  90-> 117)
 254   9.773     126.9   0.019638   0.017137  20.748420  18.843319     0.05 (  94-> 136)    0.05 (  91-> 103)    0.05 (  94-> 137)
 255   9.794     126.6   0.017135   0.016403  18.006711  16.045904     0.05 (  95-> 113)    0.04 (  91-> 103)    0.03 (  95-> 114)
 256   9.804     126.5   0.003549   0.002459   1.396324   1.639188     0.07 (  91-> 103)    0.03 (  88-> 103)    0.03 (  62->  96)
 257   9.805     126.5   0.001898   0.001550   7.168151   5.764640     0.05 (  62->  96)    0.04 (  62->  97)    0.03 (  61->  96)
 258   9.813     126.3   0.009563   0.008921  19.887879  19.247939     0.05 (  62->  97)    0.05 (  95-> 113)    0.04 (  63->  97)
 259   9.817     126.3   0.001953   0.001702  -1.006380  -1.218741     0.06 (  91-> 103)    0.04 (  62->  97)    0.04 (  88-> 103)
 260   9.829     126.1   0.008909   0.007808  25.779544  24.512973     0.13 (  95-> 110)    0.09 (  95-> 113)    0.06 (  95-> 111)
 261   9.833     126.1   0.023321   0.020323  -4.998663  -4.203876     0.15 (  86-> 101)    0.13 (  87-> 101)    0.06 (  89-> 101)
 262   9.839     126.0   0.002145   0.001878  -2.194102  -1.953553     0.03 (  89-> 122)    0.03 (  86-> 129)    0.03 (  89-> 129)
 263   9.843     126.0   0.011550   0.010678   8.098348   8.750598     0.05 (  81-> 101)    0.05 (  86-> 101)    0.04 (  81-> 106)
 264   9.855     125.8   0.017707   0.014599  -22.220710  -20.267831     0.12 (  86-> 101)    0.09 (  87-> 101)    0.04 (  89-> 101)
 265   9.860     125.7   0.011152   0.009164  -37.571780  -32.957510     0.03 (  91-> 125)    0.02 (  91-> 103)    0.02 (  62->  97)
 266   9.876     125.5   0.002231   0.001912   4.543468   4.339664     0.06 (  82-> 114)    0.04 (  83-> 102)    0.04 (  82->  97)
 267   9.882     125.5   0.053795   0.046936  39.480746  36.952767     0.07 (  86-> 112)    0.03 (  86-> 122)    0.03 (  95-> 113)
 268   9.891     125.4   0.075071   0.065731  78.256224  73.563253     0.07 (  65-> 102)    0.06 (  83-> 102)    0.06 (  66->  99)
 269   9.902     125.2   0.012242   0.010809  12.764698  11.978093     0.05 (  83-> 102)    0.04 (  65-> 102)    0.04 (  66->  99)
 270   9.909     125.1   0.020598   0.017420  -45.208232  -41.868534     0.10 (  82-> 100)    0.06 (  77-> 100)    0.04 (  72-> 100)
 271   9.915     125.0   0.008186   0.007137  -19.324753  -18.101983     0.05 (  87-> 101)    0.04 (  86-> 101)    0.02 (  94-> 132)
 272   9.920     125.0   0.003630   0.003089  12.747779  11.780526     0.40 (  87-> 101)    0.20 (  86-> 101)    0.03 (  82-> 100)
 273   9.925     124.9   0.012935   0.011046   6.396445   5.192154     0.09 (  82-> 100)    0.08 (  87-> 101)    0.04 (  86-> 101)
 274   9.929     124.9   0.039853   0.033809  -18.575614  -16.686964     0.09 (  82-> 111)    0.05 (  82-> 109)    0.03 (  91-> 102)
 275   9.932     124.8   0.004451   0.004128   3.340062   3.002215     0.05 (  82-> 111)    0.03 (  82-> 109)    0.02 (  82-> 100)
 276   9.945     124.7   0.006536   0.005102  -16.849002  -15.730213     0.07 (  95-> 127)    0.04 (  87-> 121)    0.03 (  95-> 113)
 277   9.949     124.6   0.008322   0.006293  26.427076  25.482265     0.05 (  93-> 138)    0.04 (  81-> 101)    0.03 (  93-> 139)
 278   9.955     124.5   0.001918   0.001855   2.218194   2.859145     0.07 (  95-> 142)    0.04 (  83-> 105)    0.04 (  92-> 105)
 279   9.992     124.1   0.003878   0.003828   1.636370   1.592543     0.06 (  84->  98)    0.05 (  94-> 138)    0.03 (  84-> 104)

sTD-DFT done

Total run time:       75.650 sec

           *** ORCA-CIS/TD-DFT FINISHED WITHOUT ERROR ***


-------------------------------------------------------------------------------
                          DFT DISPERSION CORRECTION                            
                                                                               
                              DFTD3 V3.1  Rev 1                                
                              USING zero damping                               
-------------------------------------------------------------------------------
The omegaB97X-D3 functional is recognized. Fit by Chai et al.
Active option DFTDOPT                   ...         3   

molecular C6(AA) [au] = 59716.230858 


            DFT-D V3
 parameters
 s6 scaling factor         :     1.0000 
 rs6 scaling factor        :     1.2810 
 s8 scaling factor         :     1.0000 
 rs8 scaling factor        :     1.0940 
 Damping factor alpha6     :    14.0000 
 Damping factor alpha8     :    16.0000 
 ad hoc parameters k1-k3   :    16.0000     1.3333    -4.0000 

 Edisp/kcal,au: -19.784737965143  -0.031528983501 
 E6   /kcal   :  -9.659559480 
 E8   /kcal   : -10.125178485 
 % E8         :  51.176712590 

-------------------------   ----------------
Dispersion correction           -0.031528984
-------------------------   ----------------


-------------------------   --------------------
FINAL SINGLE POINT ENERGY     -1755.785406504873
-------------------------   --------------------


                            ***************************************
                            *     ORCA property calculations      *
                            ***************************************

                                    ---------------------
                                    Active property flags
                                    ---------------------
   (+) Dipole Moment
   (+) Quadrupole Moment


------------------------------------------------------------------------------
                       ORCA ELECTRIC PROPERTIES CALCULATION
------------------------------------------------------------------------------

Dipole Moment Calculation                       ... on
Quadrupole Moment Calculation                   ... on
Polarizability Calculation                      ... off
GBWName                                         ... total_job2.gbw
Electron density file                           ... total_job2.scfp.tmp

-------------
DIPOLE MOMENT
-------------
                                X             Y             Z
Electronic contribution:     26.74631      -5.54745      -2.23903
Nuclear contribution   :    -25.62494       5.67789       2.14985
                        -----------------------------------------
Total Dipole Moment    :      1.12137       0.13044      -0.08918
                        -----------------------------------------
Magnitude (a.u.)       :      1.13245
Magnitude (Debye)      :      2.87846


------------------------
QUADRUPOLE MOMENT (A.U.)
------------------------

                XX           YY           ZZ           XY           XZ           YZ
  NUC     42408.37848   4160.57220    647.82603  -1519.23237   -537.99613   1138.92583
  EL     -42520.01621  -4332.33765   -829.95951   1524.04295    531.48836  -1130.96909
  TOT      -111.63773   -171.76545   -182.13349      4.81058     -6.50777      7.95674

--------------------------------------------------------------------------
[[48580,1],3]: A high-performance Open MPI point-to-point messaging module
was unable to find any relevant network interfaces:

Module: OpenFabrics (openib)
  Host: cx1-105-9-1

Another transport will be used instead, although this may result in
lower performance.
--------------------------------------------------------------------------

Timings for individual modules:

Sum of individual times         ...      347.912 sec (=   5.799 min)
GTO integral calculation        ...        9.772 sec (=   0.163 min)   2.8 %
SCF iterations                  ...      257.189 sec (=   4.286 min)  73.9 %
CIS module                      ...       80.951 sec (=   1.349 min)  23.3 %



                             ****ORCA TERMINATED NORMALLY****
TOTAL RUN TIME: 0 days 0 hours 20 minutes 4 seconds 200 msec
