
                                 *****************
                                 * O   R   C   A *
                                 *****************

           --- An Ab Initio, DFT and Semiempirical electronic structure package ---

                  #######################################################
                  #                        -***-                        #
                  #  Department of molecular theory and spectroscopy    #
                  #              Directorship: Frank Neese              #
                  # Max Planck Institute for Chemical Energy Conversion #
                  #                  D-45470 Muelheim/Ruhr              #
                  #                       Germany                       #
                  #                                                     #
                  #                  All rights reserved                #
                  #                        -***-                        #
                  #######################################################


                         Program Version 4.0.0 -  RELEASE  -


 With contributions from (in alphabetic order):
   Daniel Aravena         : Magnetic Properties
   Michael Atanasov       : Ab Initio Ligand Field Theory
   Ute Becker             : Parallelization
   Martin Brehm           : Molecular dynamics
   Dmytro Bykov           : SCF Hessian
   Vijay G. Chilkuri      : MRCI spin determinant printing
   Dipayan Datta          : RHF DLPNO-CCSD density
   Achintya Kumar Dutta   : EOM-CC, STEOM-CC
   Dmitry Ganyushin       : Spin-Orbit,Spin-Spin,Magnetic field MRCI
   Yang Guo               : DLPNO-NEVPT2, CIM, IAO-localization
   Andreas Hansen         : Spin unrestricted coupled pair/coupled cluster methods
   Lee Huntington         : MR-EOM, pCC
   Robert Izsak           : Overlap fitted RIJCOSX, COSX-SCS-MP3, EOM
   Christian Kollmar      : KDIIS, OOCD, Brueckner-CCSD(T), CCSD density
   Simone Kossmann        : Meta GGA functionals, TD-DFT gradient, OOMP2, MP2 Hessian
   Martin Krupicka        : AUTO-CI
   Dagmar Lenk            : GEPOL surface
   Dimitrios Liakos       : Extrapolation schemes; parallel MDCI
   Dimitrios Manganas     : ROCIS; embedding schemes
   Dimitrios Pantazis     : SARC Basis sets
   Taras Petrenko         : DFT Hessian,TD-DFT gradient, ASA, ECA, R-Raman, ABS, FL, XAS/XES, NRVS
   Peter Pinski           : DLPNO-MP2
   Christoph Reimann      : Effective Core Potentials
   Marius Retegan         : Local ZFS, SOC
   Christoph Riplinger    : Optimizer, TS searches, QM/MM, DLPNO-CCSD(T), (RO)-DLPNO pert. Triples
   Tobias Risthaus        : Range-separated hybrids, TD-DFT gradient, RPA, STAB
   Michael Roemelt        : Restricted open shell CIS
   Masaaki Saitow         : Open-shell DLPNO
   Barbara Sandhoefer     : DKH picture change effects
   Kantharuban Sivalingam : CASSCF convergence, NEVPT2, FIC-MRCI
   Georgi Stoychev        : AutoAux
   Boris Wezisla          : Elementary symmetry handling
   Frank Wennmohs         : Technical directorship


 We gratefully acknowledge several colleagues who have allowed us to
 interface, adapt or use parts of their codes:
   Stefan Grimme, W. Hujo, H. Kruse,             : VdW corrections, initial TS optimization,
                  C. Bannwarth                     DFT functionals, gCP, sTDA/sTD-DF
   Ed Valeev                                     : LibInt (2-el integral package), F12 methods
   Garnet Chan, S. Sharma, J. Yang, R. Olivares  : DMRG
   Ulf Ekstrom                                   : XCFun DFT Library
   Mihaly Kallay                                 : mrcc  (arbitrary order and MRCC methods)
   Jiri Pittner, Ondrej Demel                    : Mk-CCSD
   Frank Weinhold                                : gennbo (NPA and NBO analysis)
   Christopher J. Cramer and Donald G. Truhlar   : smd solvation model


 Your calculation uses the libint2 library for the computation of 2-el integrals
 For citations please refer to: http://libint.valeyev.net

 This ORCA versions uses:
   CBLAS   interface :  Fast vector & matrix operations
   LAPACKE interface :  Fast linear algebra routines
   SCALAPACK package :  Parallel linear algebra routines


Your calculation utilizes the atom-pairwise dispersion correction
with the zero-damping scheme (D30)
Cite in your paper:
S.Grimme, J.Antony, S.Ehrlich and H.Krieg, J.Chem.Phys., 132, (2010), 154104 
   

XCFun DFT library Copyright 2009-2010 Ulf Ekstrom and contributors.
See http://admol.org/xcfun for more information. This is free soft-
ware; see the source code for copying conditions. There is ABSOLUTELY
NO WARRANTY; not even for MERCHANTABILITY or FITNESS FOR A PARTICULAR
PURPOSE. For details see the documentation. Scientific users of this 
library should cite U. Ekstrom, L. Visscher, R. Bast, A. J. Thorvald-
sen and K. Ruud; J.Chem.Theor.Comp. 2010, DOI: 10.1021/ct100117s
XCFun Version 0.99 
Your calculation utilizes the basis: def2-TZVP
   F. Weigend and R. Ahlrichs, Phys. Chem. Chem. Phys. 7, 3297 (2005).

Your calculation utilizes the auxiliary basis: def2/J
   F. Weigend, Phys. Chem. Chem. Phys. 8, 1057 (2006).

================================================================================
                                        WARNINGS
                       Please study these warnings very carefully!
================================================================================

Warning: TCutStore was < 0. Adjusted to Thresh (uncritical)
INFO   : Checking CIS options ...

WARNING: CIS/ROCIS methods need fully converged wavefunctions
  ===> : Setting SCFConvForced true
         You can overwrite this default with %scf ConvForced false 


INFO   : the flag for use of LIBINT has been found!

Your calculation utilizes the atom-pairwise dispersion correction
with the zero-damping scheme (D30)
Cite in your paper:
S.Grimme, J.Antony, S.Ehrlich and H.Krieg, J.Chem.Phys., 132, (2010), 154104 
   

XCFun DFT library Copyright 2009-2010 Ulf Ekstrom and contributors.
See http://admol.org/xcfun for more information. This is free soft-
ware; see the source code for copying conditions. There is ABSOLUTELY
NO WARRANTY; not even for MERCHANTABILITY or FITNESS FOR A PARTICULAR
PURPOSE. For details see the documentation. Scientific users of this 
library should cite U. Ekstrom, L. Visscher, R. Bast, A. J. Thorvald-
sen and K. Ruud; J.Chem.Theor.Comp. 2010, DOI: 10.1021/ct100117s
XCFun Version 0.99 
Your calculation utilizes the basis: def2-TZVP
   F. Weigend and R. Ahlrichs, Phys. Chem. Chem. Phys. 7, 3297 (2005).

Your calculation utilizes the auxiliary basis: def2/J
   F. Weigend, Phys. Chem. Chem. Phys. 8, 1057 (2006).

================================================================================
                                        WARNINGS
                       Please study these warnings very carefully!
================================================================================

INFO   : Checking CIS options ...

INFO   : the flag for use of LIBINT has been found!

================================================================================
                                       INPUT FILE
================================================================================
NAME = total.inp
|  1> # 
|  2> !wB97X-D3 def2-TZVP def2/J RIJCOSX Grid5 FinalGrid6 TightSCF
|  3> %pal 
|  4>  nprocs 24
|  5> end
|  6> %tddft
|  7>   Mode sTDDFT
|  8>   nroots 2
|  9>   Ethresh 10.0
| 10>   maxcore 5000
| 11>   triplets true
| 12> end
| 13> * xyz 0 1 
| 14> C -4.48032161 -1.47795817 -2.49251453
| 15> C -4.17427920 -0.91408109 -1.25649367
| 16> C -5.17823705 -0.22354574 -0.55241431
| 17> C -6.48430900 -0.16164430 -1.11437882
| 18> C -6.79292670 -0.72263981 -2.36313978
| 19> C -5.76903878 -1.37482650 -3.04564937
| 20> C -5.25074506 0.44718533 0.73454549
| 21> C -6.60928729 0.84400137 0.89928397
| 22> N -7.32538303 0.49265514 -0.23068386
| 23> C -7.08188908 1.46818482 2.06372109
| 24> C -6.16699582 1.68293780 3.09247724
| 25> C -4.82078683 1.31738667 2.95202485
| 26> C -4.32905783 0.72004041 1.77750926
| 27> H -4.12725026 1.52419005 3.76216133
| 28> H -8.31688047 0.64689254 -0.36726135
| 29> H -6.49596284 2.15263530 4.01507803
| 30> H -3.17713457 -1.03010524 -0.84315098
| 31> H -7.79586358 -0.65846205 -2.77644619
| 32> H -5.97136739 -1.82280201 -4.01474925
| 33> H -3.70964033 -2.01203210 -3.04107596
| 34> C 2.70640481 0.13266505 -0.00304956
| 35> N 1.97361943 0.43912599 -1.08716632
| 36> O 0.67886087 0.51394537 -0.67499649
| 37> C 0.59604113 0.26000315 0.64183706
| 38> C 1.85921500 0.00690866 1.13784712
| 39> C -0.72040792 0.29404878 1.26359941
| 40> N -0.89644788 0.04392558 2.56927504
| 41> O -2.22827939 0.16659095 2.81003310
| 42> C -2.88546132 0.46792201 1.67692734
| 43> C -1.97320578 0.57338247 0.64398508
| 44> H -2.15518289 0.85433831 -0.38243959
| 45> H 2.13313638 -0.23056799 2.15577764
| 46> S 5.09609749 -0.43404792 1.36987683
| 47> C 6.56681453 -0.42474054 0.43372522
| 48> C 6.32712781 -0.12666845 -0.90387672
| 49> C 4.95680936 0.09826673 -1.19366831
| 50> C 4.14919248 -0.02901435 -0.07187232
| 51> C 7.98234024 -0.63387096 0.61786939
| 52> C 8.62402858 -0.46643403 -0.60290959
| 53> C 7.62251295 -0.12783703 -1.68131120
| 54> C 10.03344515 -0.65364745 -0.52389732
| 55> C 10.44546288 -0.96061171 0.75373472
| 56> S 9.10648136 -1.02656630 1.89136306
| 57> H 10.71544916 -0.56785718 -1.36287267
| 58> H 4.55978260 0.34342443 -2.17251652
| 59> H 7.82666011 0.84324853 -2.15033502
| 60> H 7.61892989 -0.86557206 -2.49396420
| 61> H -8.12337675 1.76059219 2.16318059
| 62> H 11.46130641 -1.14906467 1.07690103
| 63> *
| 64> $new_job
| 65> # 
| 66> !wB97X-D3 def2-TZVP def2/J RIJCOSX Grid5 FinalGrid6 TightSCF
| 67> %pal 
| 68>  nprocs 24
| 69> end
| 70> %elprop
| 71>    dipole     true
| 72>    quadrupole true
| 73> end
| 74> %tddft
| 75>   Mode sTDDFT
| 76>   nroots 2
| 77>   Ethresh 10.0
| 78>   maxcore 5000
| 79> end
| 80> * xyz 0 1 
| 81> C -4.48032161 -1.47795817 -2.49251453
| 82> C -4.17427920 -0.91408109 -1.25649367
| 83> C -5.17823705 -0.22354574 -0.55241431
| 84> C -6.48430900 -0.16164430 -1.11437882
| 85> C -6.79292670 -0.72263981 -2.36313978
| 86> C -5.76903878 -1.37482650 -3.04564937
| 87> C -5.25074506 0.44718533 0.73454549
| 88> C -6.60928729 0.84400137 0.89928397
| 89> N -7.32538303 0.49265514 -0.23068386
| 90> C -7.08188908 1.46818482 2.06372109
| 91> C -6.16699582 1.68293780 3.09247724
| 92> C -4.82078683 1.31738667 2.95202485
| 93> C -4.32905783 0.72004041 1.77750926
| 94> H -4.12725026 1.52419005 3.76216133
| 95> H -8.31688047 0.64689254 -0.36726135
| 96> H -6.49596284 2.15263530 4.01507803
| 97> H -3.17713457 -1.03010524 -0.84315098
| 98> H -7.79586358 -0.65846205 -2.77644619
| 99> H -5.97136739 -1.82280201 -4.01474925
|100> H -3.70964033 -2.01203210 -3.04107596
|101> C 2.70640481 0.13266505 -0.00304956
|102> N 1.97361943 0.43912599 -1.08716632
|103> O 0.67886087 0.51394537 -0.67499649
|104> C 0.59604113 0.26000315 0.64183706
|105> C 1.85921500 0.00690866 1.13784712
|106> C -0.72040792 0.29404878 1.26359941
|107> N -0.89644788 0.04392558 2.56927504
|108> O -2.22827939 0.16659095 2.81003310
|109> C -2.88546132 0.46792201 1.67692734
|110> C -1.97320578 0.57338247 0.64398508
|111> H -2.15518289 0.85433831 -0.38243959
|112> H 2.13313638 -0.23056799 2.15577764
|113> S 5.09609749 -0.43404792 1.36987683
|114> C 6.56681453 -0.42474054 0.43372522
|115> C 6.32712781 -0.12666845 -0.90387672
|116> C 4.95680936 0.09826673 -1.19366831
|117> C 4.14919248 -0.02901435 -0.07187232
|118> C 7.98234024 -0.63387096 0.61786939
|119> C 8.62402858 -0.46643403 -0.60290959
|120> C 7.62251295 -0.12783703 -1.68131120
|121> C 10.03344515 -0.65364745 -0.52389732
|122> C 10.44546288 -0.96061171 0.75373472
|123> S 9.10648136 -1.02656630 1.89136306
|124> H 10.71544916 -0.56785718 -1.36287267
|125> H 4.55978260 0.34342443 -2.17251652
|126> H 7.82666011 0.84324853 -2.15033502
|127> H 7.61892989 -0.86557206 -2.49396420
|128> H -8.12337675 1.76059219 2.16318059
|129> H 11.46130641 -1.14906467 1.07690103
|130> *
|131> 
|132>                          ****END OF INPUT****
================================================================================


                 $$$$$$$$$$$$$$$$$$$$$$$$$$$$$$$$$$$$$$$$$$$$$$ 
                 $ THERE ARE  2 JOBS TO BE PROCESSED THIS RUN $
                 $$$$$$$$$$$$$$$$$$$$$$$$$$$$$$$$$$$$$$$$$$$$$$ 




                 $$$$$$$$$$$$$$$$  JOB NUMBER  1 $$$$$$$$$$$$$$


                       ****************************
                       * Single Point Calculation *
                       ****************************

---------------------------------
CARTESIAN COORDINATES (ANGSTROEM)
---------------------------------
  C     -4.480322   -1.477958   -2.492515
  C     -4.174279   -0.914081   -1.256494
  C     -5.178237   -0.223546   -0.552414
  C     -6.484309   -0.161644   -1.114379
  C     -6.792927   -0.722640   -2.363140
  C     -5.769039   -1.374826   -3.045649
  C     -5.250745    0.447185    0.734545
  C     -6.609287    0.844001    0.899284
  N     -7.325383    0.492655   -0.230684
  C     -7.081889    1.468185    2.063721
  C     -6.166996    1.682938    3.092477
  C     -4.820787    1.317387    2.952025
  C     -4.329058    0.720040    1.777509
  H     -4.127250    1.524190    3.762161
  H     -8.316880    0.646893   -0.367261
  H     -6.495963    2.152635    4.015078
  H     -3.177135   -1.030105   -0.843151
  H     -7.795864   -0.658462   -2.776446
  H     -5.971367   -1.822802   -4.014749
  H     -3.709640   -2.012032   -3.041076
  C      2.706405    0.132665   -0.003050
  N      1.973619    0.439126   -1.087166
  O      0.678861    0.513945   -0.674996
  C      0.596041    0.260003    0.641837
  C      1.859215    0.006909    1.137847
  C     -0.720408    0.294049    1.263599
  N     -0.896448    0.043926    2.569275
  O     -2.228279    0.166591    2.810033
  C     -2.885461    0.467922    1.676927
  C     -1.973206    0.573382    0.643985
  H     -2.155183    0.854338   -0.382440
  H      2.133136   -0.230568    2.155778
  S      5.096097   -0.434048    1.369877
  C      6.566815   -0.424741    0.433725
  C      6.327128   -0.126668   -0.903877
  C      4.956809    0.098267   -1.193668
  C      4.149192   -0.029014   -0.071872
  C      7.982340   -0.633871    0.617869
  C      8.624029   -0.466434   -0.602910
  C      7.622513   -0.127837   -1.681311
  C     10.033445   -0.653647   -0.523897
  C     10.445463   -0.960612    0.753735
  S      9.106481   -1.026566    1.891363
  H     10.715449   -0.567857   -1.362873
  H      4.559783    0.343424   -2.172517
  H      7.826660    0.843249   -2.150335
  H      7.618930   -0.865572   -2.493964
  H     -8.123377    1.760592    2.163181
  H     11.461306   -1.149065    1.076901

----------------------------
CARTESIAN COORDINATES (A.U.)
----------------------------
  NO LB      ZA    FRAG     MASS         X           Y           Z
   0 C     6.0000    0    12.011   -8.466581   -2.792936   -4.710170
   1 C     6.0000    0    12.011   -7.888244   -1.727363   -2.374429
   2 C     6.0000    0    12.011   -9.785450   -0.422440   -1.043912
   3 C     6.0000    0    12.011  -12.253568   -0.305463   -2.105871
   4 C     6.0000    0    12.011  -12.836771   -1.365591   -4.465687
   5 C     6.0000    0    12.011  -10.901903   -2.598046   -5.755443
   6 C     6.0000    0    12.011   -9.922470    0.845058    1.388090
   7 C     6.0000    0    12.011  -12.489743    1.594931    1.699400
   8 N     7.0000    0    14.007  -13.842968    0.930983   -0.435929
   9 C     6.0000    0    12.011  -13.382831    2.774467    3.899868
  10 C     6.0000    0    12.011  -11.653933    3.180292    5.843935
  11 C     6.0000    0    12.011   -9.109967    2.489500    5.578519
  12 C     6.0000    0    12.011   -8.180734    1.360679    3.359006
  13 H     1.0000    0     1.008   -7.799373    2.880302    7.109455
  14 H     1.0000    0     1.008  -15.716626    1.222450   -0.694023
  15 H     1.0000    0     1.008  -12.275591    4.067891    7.587398
  16 H     1.0000    0     1.008   -6.003914   -1.946617   -1.593324
  17 H     1.0000    0     1.008  -14.732047   -1.244313   -5.246723
  18 H     1.0000    0     1.008  -11.284249   -3.444597   -7.586777
  19 H     1.0000    0     1.008   -7.010204   -3.802190   -5.746801
  20 C     6.0000    0    12.011    5.114364    0.250701   -0.005763
  21 N     7.0000    0    14.007    3.729600    0.829828   -2.054447
  22 O     8.0000    0    15.999    1.282861    0.971216   -1.275559
  23 C     6.0000    0    12.011    1.126355    0.491335    1.212896
  24 C     6.0000    0    12.011    3.513407    0.013055    2.150219
  25 C     6.0000    0    12.011   -1.361374    0.555672    2.387857
  26 N     7.0000    0    14.007   -1.694041    0.083007    4.855226
  27 O     8.0000    0    15.999   -4.210838    0.314811    5.310193
  28 C     6.0000    0    12.011   -5.452732    0.884244    3.168933
  29 C     6.0000    0    12.011   -3.728819    1.083536    1.216955
  30 H     1.0000    0     1.008   -4.072705    1.614465   -0.722706
  31 H     1.0000    0     1.008    4.031044   -0.435710    4.073829
  32 S    16.0000    0    32.060    9.630229   -0.820232    2.588692
  33 C     6.0000    0    12.011   12.409481   -0.802643    0.819622
  34 C     6.0000    0    12.011   11.956539   -0.239369   -1.708079
  35 C     6.0000    0    12.011    9.367012    0.185697   -2.255706
  36 C     6.0000    0    12.011    7.840837   -0.054829   -0.135819
  37 C     6.0000    0    12.011   15.084437   -1.197843    1.167604
  38 C     6.0000    0    12.011   16.297052   -0.881433   -1.139334
  39 C     6.0000    0    12.011   14.404462   -0.241577   -3.177218
  40 C     6.0000    0    12.011   18.960464   -1.235215   -0.990022
  41 C     6.0000    0    12.011   19.739064   -1.815293    1.424352
  42 S    16.0000    0    32.060   17.208756   -1.939929    3.574158
  43 H     1.0000    0     1.008   20.249264   -1.073095   -2.575456
  44 H     1.0000    0     1.008    8.616740    0.648978   -4.105461
  45 H     1.0000    0     1.008   14.790244    1.593509   -4.063544
  46 H     1.0000    0     1.008   14.397691   -1.635694   -4.712909
  47 H     1.0000    0     1.008  -15.350957    3.327037    4.087819
  48 H     1.0000    0     1.008   21.658730   -2.171418    2.035048

--------------------------------
INTERNAL COORDINATES (ANGSTROEM)
--------------------------------
 C      0   0   0     0.000000000000     0.00000000     0.00000000
 C      1   0   0     1.392611533926     0.00000000     0.00000000
 C      2   1   0     1.407301737139   119.07484543     0.00000000
 C      3   2   1     1.423186508280   118.58596942     1.85195981
 C      4   3   2     1.403340579551   122.39824397   357.71626819
 C      5   4   3     1.392664098689   117.49147326     0.97739811
 C      3   2   1     1.453066793576   134.84627460   178.15577364
 C      7   3   2     1.424864459199   106.17245723   185.08891271
 N      8   7   3     1.383135777506   109.17393204   357.78362093
 C      8   7   3     1.403164722190   122.74939563   176.75531232
 C     10   8   7     1.393372791386   117.39458001   359.23530432
 C     11  10   8     1.402010394847   121.08572687     1.51494313
 C     12  11  10     1.406451860154   122.01259097   359.95446066
 H     12  11  10     1.086315666891   119.25343074   178.27538224
 H      9   8   7     1.012674557723   125.33803961   178.94840040
 H     11  10   8     1.086290596232   119.66080341   180.72476664
 H      2   1   3     1.085638612015   119.76873270   178.75300045
 H      5   4   3     1.086656964589   121.18578484   180.38575817
 H      6   5   4     1.086634023671   119.55348779   179.90402236
 H      1   2   3     1.086326028654   119.42914158   179.98332520
 C     17   2   1     6.055893062068   157.61467900    82.22730414
 N     21  17   2     1.343950099595    53.28389844   336.28517189
 O     22  21  17     1.360838578627   106.67762058    24.23474452
 C     23  22  21     1.343650385643   110.18718203     0.00000000
 C     24  23  22     1.380467683917   109.29209439     0.00000000
 C     24  23  22     1.456291737958   118.01667617   180.06031186
 N     26  24  23     1.341022197233   122.00561483   179.52644701
 O     27  26  24     1.358965197303   106.51756869   179.68638589
 C     28  27  26     1.344104594213   110.49090366     0.92558118
 C     29  28  27     1.382136676085   108.93065751   359.03835995
 H     30  29  28     1.079629314060   128.25236942   183.57702439
 H     25  24  23     1.080560329303   127.64256055   180.00454739
 S     21  17   2     2.813666925485   148.66726525   176.17919549
 C     33  21  17     1.743409038629   116.96103940   140.73543480
 C     34  33  21     1.391213730695   111.84390247     0.00000000
 C     35  34  33     1.418572400425   113.37892129     0.00000000
 C     36  35  34     1.388118057431   112.48160042     0.00000000
 C     34  33  21     1.442691111633   139.32251719   179.99522164
 C     38  34  33     1.389280522152   108.87831615   180.00511411
 C     39  38  34     1.510175989080   110.37664477     0.00000000
 C     39  38  34     1.423989772165   113.11367723   179.99847238
 C     41  39  38     1.377072727341   112.14317225     0.00000000
 S     38  34  33     1.743470394146   139.33335353     0.00000000
 H     41  39  38     1.084605494173   124.68392899   180.00103262
 H     36  35  34     1.084378330771   125.02477200   179.99536058
 H     40  39  38     1.097573036979   112.34434550   120.16412498
 H     40  39  38     1.097574922826   112.34482070   239.83215320
 H     10   8   7     1.086319855720   121.24034752   180.00100042
 H     42  41  39     1.082538248513   126.62245018   180.00048495

---------------------------
INTERNAL COORDINATES (A.U.)
---------------------------
 C      0   0   0     0.000000000000     0.00000000     0.00000000
 C      1   0   0     2.631654410060     0.00000000     0.00000000
 C      2   1   0     2.659414870984   119.07484543     0.00000000
 C      3   2   1     2.689432738141   118.58596942     1.85195981
 C      4   3   2     2.651929367969   122.39824397   357.71626819
 C      5   4   3     2.631753743066   117.49147326     0.97739811
 C      3   2   1     2.745898294154   134.84627460   178.15577364
 C      7   3   2     2.692603605843   106.17245723   185.08891271
 N      8   7   3     2.613747825514   109.17393204   357.78362093
 C      8   7   3     2.651597045719   122.74939563   176.75531232
 C     10   8   7     2.633092978177   117.39458001   359.23530432
 C     11  10   8     2.649415683171   121.08572687     1.51494313
 C     12  11  10     2.657808836235   122.01259097   359.95446066
 H     12  11  10     2.052839105413   119.25343074   178.27538224
 H      9   8   7     1.913677576887   125.33803961   178.94840040
 H     11  10   8     2.052791728733   119.66080341   180.72476664
 H      2   1   3     2.051559657118   119.76873270   178.75300045
 H      5   4   3     2.053484064591   121.18578484   180.38575817
 H      6   5   4     2.053440712540   119.55348779   179.90402236
 H      1   2   3     2.052858686307   119.42914158   179.98332520
 C     17   2   1    11.443979383622   157.61467900    82.22730414
 N     21  17   2     2.539697625890    53.28389844   336.28517189
 O     22  21  17     2.571612226079   106.67762058    24.23474452
 C     23  22  21     2.539131248602   110.18718203     0.00000000
 C     24  23  22     2.608705859333   109.29209439     0.00000000
 C     24  23  22     2.751992555833   118.01667617   180.06031186
 N     26  24  23     2.534164692279   122.00561483   179.52644701
 O     27  26  24     2.568072048433   106.51756869   179.68638589
 C     28  27  26     2.539989578408   110.49090366     0.92558118
 C     29  28  27     2.611859797448   108.93065751   359.03835995
 H     30  29  28     2.040203729728   128.25236942   183.57702439
 H     25  24  23     2.041963093563   127.64256055   180.00454739
 S     21  17   2     5.317059921240   148.66726525   176.17919549
 C     33  21  17     3.294565622412   116.96103940   140.73543480
 C     34  33  21     2.629012944764   111.84390247     0.00000000
 C     35  34  33     2.680713337942   113.37892129     0.00000000
 C     36  35  34     2.623162970096   112.48160042     0.00000000
 C     34  33  21     2.726291096829   139.32251719   179.99522164
 C     38  34  33     2.625359710058   108.87831615   180.00511411
 C     39  38  34     2.853819033385   110.37664477     0.00000000
 C     39  38  34     2.690950686896   113.11367723   179.99847238
 C     41  39  38     2.602290321166   112.14317225     0.00000000
 S     38  34  33     3.294681567535   139.33335353     0.00000000
 H     41  39  38     2.049607347333   124.68392899   180.00103262
 H     36  35  34     2.049178070716   125.02477200   179.99536058
 H     40  39  38     2.074112451867   112.34434550   120.16412498
 H     40  39  38     2.074116015601   112.34482070   239.83215320
 H     10   8   7     2.052847021153   121.24034752   180.00100042
 H     42  41  39     2.045700819185   126.62245018   180.00048495

---------------------
BASIS SET INFORMATION
---------------------
There are 5 groups of distinct atoms

 Group   1 Type C   : 11s6p2d1f contracted to 5s3p2d1f pattern {62111/411/11/1}
 Group   2 Type N   : 11s6p2d1f contracted to 5s3p2d1f pattern {62111/411/11/1}
 Group   3 Type H   : 5s1p contracted to 3s1p pattern {311/1}
 Group   4 Type O   : 11s6p2d1f contracted to 5s3p2d1f pattern {62111/411/11/1}
 Group   5 Type S   : 14s9p3d1f contracted to 5s5p2d1f pattern {73211/51111/21/1}

Atom   0C    basis set group =>   1
Atom   1C    basis set group =>   1
Atom   2C    basis set group =>   1
Atom   3C    basis set group =>   1
Atom   4C    basis set group =>   1
Atom   5C    basis set group =>   1
Atom   6C    basis set group =>   1
Atom   7C    basis set group =>   1
Atom   8N    basis set group =>   2
Atom   9C    basis set group =>   1
Atom  10C    basis set group =>   1
Atom  11C    basis set group =>   1
Atom  12C    basis set group =>   1
Atom  13H    basis set group =>   3
Atom  14H    basis set group =>   3
Atom  15H    basis set group =>   3
Atom  16H    basis set group =>   3
Atom  17H    basis set group =>   3
Atom  18H    basis set group =>   3
Atom  19H    basis set group =>   3
Atom  20C    basis set group =>   1
Atom  21N    basis set group =>   2
Atom  22O    basis set group =>   4
Atom  23C    basis set group =>   1
Atom  24C    basis set group =>   1
Atom  25C    basis set group =>   1
Atom  26N    basis set group =>   2
Atom  27O    basis set group =>   4
Atom  28C    basis set group =>   1
Atom  29C    basis set group =>   1
Atom  30H    basis set group =>   3
Atom  31H    basis set group =>   3
Atom  32S    basis set group =>   5
Atom  33C    basis set group =>   1
Atom  34C    basis set group =>   1
Atom  35C    basis set group =>   1
Atom  36C    basis set group =>   1
Atom  37C    basis set group =>   1
Atom  38C    basis set group =>   1
Atom  39C    basis set group =>   1
Atom  40C    basis set group =>   1
Atom  41C    basis set group =>   1
Atom  42S    basis set group =>   5
Atom  43H    basis set group =>   3
Atom  44H    basis set group =>   3
Atom  45H    basis set group =>   3
Atom  46H    basis set group =>   3
Atom  47H    basis set group =>   3
Atom  48H    basis set group =>   3
-------------------------------
AUXILIARY BASIS SET INFORMATION
-------------------------------
There are 5 groups of distinct atoms

 Group   1 Type C   : 12s5p4d2f1g contracted to 6s4p3d1f1g pattern {711111/2111/211/2/1}
 Group   2 Type N   : 12s5p4d2f1g contracted to 6s4p3d1f1g pattern {711111/2111/211/2/1}
 Group   3 Type H   : 5s2p1d contracted to 3s1p1d pattern {311/2/1}
 Group   4 Type O   : 12s5p4d2f1g contracted to 6s4p3d1f1g pattern {711111/2111/211/2/1}
 Group   5 Type S   : 14s5p5d2f1g contracted to 8s4p3d1f1g pattern {71111111/2111/311/2/1}

Atom   0C    basis set group =>   1
Atom   1C    basis set group =>   1
Atom   2C    basis set group =>   1
Atom   3C    basis set group =>   1
Atom   4C    basis set group =>   1
Atom   5C    basis set group =>   1
Atom   6C    basis set group =>   1
Atom   7C    basis set group =>   1
Atom   8N    basis set group =>   2
Atom   9C    basis set group =>   1
Atom  10C    basis set group =>   1
Atom  11C    basis set group =>   1
Atom  12C    basis set group =>   1
Atom  13H    basis set group =>   3
Atom  14H    basis set group =>   3
Atom  15H    basis set group =>   3
Atom  16H    basis set group =>   3
Atom  17H    basis set group =>   3
Atom  18H    basis set group =>   3
Atom  19H    basis set group =>   3
Atom  20C    basis set group =>   1
Atom  21N    basis set group =>   2
Atom  22O    basis set group =>   4
Atom  23C    basis set group =>   1
Atom  24C    basis set group =>   1
Atom  25C    basis set group =>   1
Atom  26N    basis set group =>   2
Atom  27O    basis set group =>   4
Atom  28C    basis set group =>   1
Atom  29C    basis set group =>   1
Atom  30H    basis set group =>   3
Atom  31H    basis set group =>   3
Atom  32S    basis set group =>   5
Atom  33C    basis set group =>   1
Atom  34C    basis set group =>   1
Atom  35C    basis set group =>   1
Atom  36C    basis set group =>   1
Atom  37C    basis set group =>   1
Atom  38C    basis set group =>   1
Atom  39C    basis set group =>   1
Atom  40C    basis set group =>   1
Atom  41C    basis set group =>   1
Atom  42S    basis set group =>   5
Atom  43H    basis set group =>   3
Atom  44H    basis set group =>   3
Atom  45H    basis set group =>   3
Atom  46H    basis set group =>   3
Atom  47H    basis set group =>   3
Atom  48H    basis set group =>   3
-------------------------
ECP PARAMETER INFORMATION
-------------------------



--------------------------------------------------------------------------
[[59255,1],3]: A high-performance Open MPI point-to-point messaging module
was unable to find any relevant network interfaces:

Module: OpenFabrics (openib)
  Host: cx1-136-18-1

Another transport will be used instead, although this may result in
lower performance.
--------------------------------------------------------------------------


           ************************************************************
           *        Program running with 24 parallel MPI-processes    *
           *              working on a common directory               *
           ************************************************************
------------------------------------------------------------------------------
                           ORCA GTO INTEGRAL CALCULATION
                           -- RI-GTO INTEGRALS CHOSEN --
------------------------------------------------------------------------------

                         BASIS SET STATISTICS AND STARTUP INFO

Gaussian basis set:
 # of primitive gaussian shells          ...  784
 # of primitive gaussian functions       ... 1718
 # of contracted shells                  ...  438
 # of contracted basis functions         ... 1156
 Highest angular momentum                ...    3
 Maximum contraction depth               ...    7
Auxiliary gaussian basis set:
 # of primitive gaussian shells          ...  942
 # of primitive gaussian functions       ... 2634
 # of contracted shells                  ...  589
 # of contracted aux-basis functions     ... 1835
 Highest angular momentum                ...    4
 Maximum contraction depth               ...    7
Ratio of auxiliary to basis functions    ...  1.59
Integral package used                  ... LIBINT
 One Electron integrals                  
   ECP integrals                         ... done
 Ordering auxiliary basis shells         ... done
 Integral threshhold             Thresh  ...  2.500e-11
 Primitive cut-off               TCut    ...  2.500e-12
 Pre-screening matrix                    ... done
 Shell pair data                         ... 
 Ordering of the shell pairs             ... done (   0.016 sec) 46277 of 96141 pairs
 Determination of significant pairs      ... done (   0.000 sec)
 Creation of shell pair data             ... done (   0.011 sec)
 Storage of shell pair data              ... done (   0.118 sec)
 Shell pair data done in (   0.145 sec)
 Computing two index integrals           ... done
 Cholesky decomposition of the V-matrix  ... done


Timings:
 Total evaluation time                   ...   5.879 sec (  0.098 min)
 One electron matrix time                ...   1.643 sec (  0.027 min) = 27.9%
 Schwartz matrix evaluation time         ...   2.990 sec (  0.050 min) = 50.9%
 Two index repulsion integral time       ...   0.448 sec (  0.007 min) =  7.6%
 Cholesky decomposition of V             ...   0.603 sec (  0.010 min) = 10.3%
 Three index repulsion integral time     ...   0.000 sec (  0.000 min) =  0.0%

--------------------------------------------------------------------------
[[59173,1],9]: A high-performance Open MPI point-to-point messaging module
was unable to find any relevant network interfaces:

Module: OpenFabrics (openib)
  Host: cx1-136-18-1

Another transport will be used instead, although this may result in
lower performance.
--------------------------------------------------------------------------


           ************************************************************
           *        Program running with 24 parallel MPI-processes    *
           *              working on a common directory               *
           ************************************************************
-------------------------------------------------------------------------------
                                 ORCA SCF
-------------------------------------------------------------------------------

------------
SCF SETTINGS
------------
Hamiltonian:
 Density Functional     Method          .... DFT(GTOs)
 Exchange Functional    Exchange        .... WB97X-D3
 Correlation Functional Correlation     .... WB97X-D3
 Gradients option       PostSCFGGA      .... off
 Hybrid DFT is turned on
   Fraction HF Exchange ScalHFX         ....  0.195728
   Scaling of DF-GGA-X  ScalDFX         ....  0.000000
   Scaling of DF-GGA-C  ScalDFC         ....  1.000000
   Scaling of DF-LDA-C  ScalLDAC        ....  1.000000
   Perturbative correction              ....  0.000000
 Long-range corrected/Screened/Range-Separated Hybrid DFT is turned on
   Amount of maximum screened exact exchange              ....  0.804272
   Range separation parameter mu (erf(mu*r12)/r12)        ....  0.250000
 RI-approximation to the Coulomb term is turned on
   Number of auxiliary basis functions  .... 1835
   RIJ-COSX (HFX calculated with COS-X)).... on


General Settings:
 Integral files         IntName         .... total
 Hartree-Fock type      HFTyp           .... RHF
 Total Charge           Charge          ....    0
 Multiplicity           Mult            ....    1
 Number of Electrons    NEL             ....  246
 Basis Dimension        Dim             .... 1156
 Nuclear Repulsion      ENuc            ....   3226.1004116629 Eh

Convergence Acceleration:
 DIIS                   CNVDIIS         .... on
   Start iteration      DIISMaxIt       ....    12
   Startup error        DIISStart       ....  0.200000
   # of expansion vecs  DIISMaxEq       ....     5
   Bias factor          DIISBfac        ....   1.050
   Max. coefficient     DIISMaxC        ....  10.000
 Newton-Raphson         CNVNR           .... off
 SOSCF                  CNVSOSCF        .... on
   Start iteration      SOSCFMaxIt      ....   150
   Startup grad/error   SOSCFStart      ....  0.003300
 Level Shifting         CNVShift        .... on
   Level shift para.    LevelShift      ....    0.2500
   Turn off err/grad.   ShiftErr        ....    0.0010
 Zerner damping         CNVZerner       .... off
 Static damping         CNVDamp         .... on
   Fraction old density DampFac         ....    0.7000
   Max. Damping (<1)    DampMax         ....    0.9800
   Min. Damping (>=0)   DampMin         ....    0.0000
   Turn off err/grad.   DampErr         ....    0.1000
 Fernandez-Rico         CNVRico         .... off

SCF Procedure:
 Maximum # iterations   MaxIter         ....   125
 SCF integral mode      SCFMode         .... Direct
   Integral package                     .... LIBINT
 Reset frequeny         DirectResetFreq ....    20
 Integral Threshold     Thresh          ....  2.500e-11 Eh
 Primitive CutOff       TCut            ....  2.500e-12 Eh

Convergence Tolerance:
 Convergence Check Mode ConvCheckMode   .... Total+1el-Energy
 Convergence forced     ConvForced      .... 1
 Energy Change          TolE            ....  1.000e-08 Eh
 1-El. energy change                    ....  1.000e-05 Eh
 Orbital Gradient       TolG            ....  1.000e-05
 Orbital Rotation angle TolX            ....  1.000e-05
 DIIS Error             TolErr          ....  5.000e-07


Diagonalization of the overlap matrix:
Smallest eigenvalue                        ... 4.706e-06
Time for diagonalization                   ...    0.432 sec
Threshold for overlap eigenvalues          ... 1.000e-08
Number of eigenvalues below threshold      ... 0
Time for construction of square roots      ...    0.403 sec
Total time needed                          ...    0.841 sec

-------------------
DFT GRID GENERATION
-------------------

General Integration Accuracy     IntAcc      ...  5.010
Radial Grid Type                 RadialGrid  ... Gauss-Chebyshev
Angular Grid (max. acc.)         AngularGrid ... Lebedev-434
Angular grid pruning method      GridPruning ... 3 (G Style)
Weight generation scheme         WeightScheme... Becke
Basis function cutoff            BFCut       ...    1.0000e-11
Integration weight cutoff        WCut        ...    1.0000e-14
Grids for H and He will be reduced by one unit

# of grid points (after initial pruning)     ... 466160 (   0.0 sec)
# of grid points (after weights+screening)   ... 409729 (   1.6 sec)
nearest neighbour list constructed           ...    0.0 sec
Grid point re-assignment to atoms done       ...    0.2 sec
Grid point division into batches done        ...    4.9 sec
Reduced shell lists constructed in    5.8 sec

Total number of grid points                  ...   409729
Total number of batches                      ...     6427
Average number of points per batch           ...       63
Average number of grid points per atom       ...     8362
Average number of shells per batch           ...   143.88 (32.85%)
Average number of basis functions per batch  ...   369.34 (31.95%)
Average number of large shells per batch     ...    96.64 (67.16%)
Average number of large basis fcns per batch ...   249.64 (67.59%)
Maximum spatial batch extension              ...   9.95, 14.48,  9.33 au
Average spatial batch extension              ...   0.05,  0.05,  0.05 au

Time for grid setup =    8.294 sec

------------------------------
INITIAL GUESS: MODEL POTENTIAL
------------------------------
Loading Hartree-Fock densities                     ... done
Calculating cut-offs                               ... done
Setting up the integral package                    ... done
Initializing the effective Hamiltonian             ... done
Starting the Coulomb interaction                   ... done (   0.6 sec)
Reading the grid                                   ... done
Mapping shells                                     ... done
Starting the XC term evaluation                    ... done (   2.2 sec)
  promolecular density results
     # of electrons  =    245.992683022
     EX              =   -228.331965505
     EC              =     -8.518475612
     EX+EC           =   -236.850441117
Transforming the Hamiltonian                       ... done (   0.2 sec)
Diagonalizing the Hamiltonian                      ... done (   0.4 sec)
Back transforming the eigenvectors                 ... done (   0.1 sec)
Now organizing SCF variables                       ... done
                      ------------------
                      INITIAL GUESS DONE (  12.2 sec)
                      ------------------
--------------------
COSX GRID GENERATION
--------------------

General Integration Accuracy     IntAcc      ...  3.340
Radial Grid Type                 RadialGrid  ... Gauss-Chebyshev
Angular Grid (max. acc.)         AngularGrid ... Lebedev-50
Angular grid pruning method      GridPruning ... 3 (G Style)
Weight generation scheme         WeightScheme... Becke
Basis function cutoff            BFCut       ...    1.0000e-11
Integration weight cutoff        WCut        ...    1.0000e-14
Grids for H and He will be reduced by one unit

# of grid points (after initial pruning)     ...  24730 (   0.0 sec)
# of grid points (after weights+screening)   ...  22605 (   0.1 sec)
nearest neighbour list constructed           ...    0.0 sec
Grid point re-assignment to atoms done       ...    0.0 sec
Grid point division into batches done        ...    0.0 sec
Reduced shell lists constructed in    0.1 sec

Total number of grid points                  ...    22605
Total number of batches                      ...      377
Average number of points per batch           ...       59
Average number of grid points per atom       ...      461
Average number of shells per batch           ...   155.35 (35.47%)
Average number of basis functions per batch  ...   402.88 (34.85%)
Average number of large shells per batch     ...   105.53 (67.93%)
Average number of large basis fcns per batch ...   275.76 (68.45%)
Maximum spatial batch extension              ...   6.37, 14.59,  6.96 au
Average spatial batch extension              ...   0.12,  0.20,  0.14 au

Overlap Fitting                  UseSFitting ... on
Constructing numerical overlap ... done (      0.1 sec)
Inverting numerical overlap    ... done (      0.2 sec)
Obtaining analytic overlap     ... done (      0.0 sec)
Final contraction and storage  ... done (      0.6 sec)


General Integration Accuracy     IntAcc      ...  3.670
Radial Grid Type                 RadialGrid  ... Gauss-Chebyshev
Angular Grid (max. acc.)         AngularGrid ... Lebedev-50
Angular grid pruning method      GridPruning ... 3 (G Style)
Weight generation scheme         WeightScheme... Becke
Basis function cutoff            BFCut       ...    1.0000e-11
Integration weight cutoff        WCut        ...    1.0000e-14
Grids for H and He will be reduced by one unit

# of grid points (after initial pruning)     ...  30920 (   0.0 sec)
# of grid points (after weights+screening)   ...  28185 (   0.1 sec)
nearest neighbour list constructed           ...    0.0 sec
Grid point re-assignment to atoms done       ...    0.0 sec
Grid point division into batches done        ...    0.0 sec
Reduced shell lists constructed in    0.1 sec

Total number of grid points                  ...    28185
Total number of batches                      ...      459
Average number of points per batch           ...       61
Average number of grid points per atom       ...      575
Average number of shells per batch           ...   156.76 (35.79%)
Average number of basis functions per batch  ...   407.52 (35.25%)
Average number of large shells per batch     ...   109.14 (69.62%)
Average number of large basis fcns per batch ...   286.00 (70.18%)
Maximum spatial batch extension              ...   5.49, 17.62, 12.42 au
Average spatial batch extension              ...   0.11,  0.20,  0.15 au

Overlap Fitting                  UseSFitting ... on
Constructing numerical overlap ... done (      0.1 sec)
Inverting numerical overlap    ... done (      0.2 sec)
Obtaining analytic overlap     ... done (      0.0 sec)
Final contraction and storage  ... done (      0.6 sec)


General Integration Accuracy     IntAcc      ...  4.010
Radial Grid Type                 RadialGrid  ... Gauss-Chebyshev
Angular Grid (max. acc.)         AngularGrid ... Lebedev-110
Angular grid pruning method      GridPruning ... 3 (G Style)
Weight generation scheme         WeightScheme... Becke
Basis function cutoff            BFCut       ...    1.0000e-11
Integration weight cutoff        WCut        ...    1.0000e-14
Grids for H and He will be reduced by one unit

# of grid points (after initial pruning)     ...  60168 (   0.0 sec)
# of grid points (after weights+screening)   ...  54314 (   0.2 sec)
nearest neighbour list constructed           ...    0.0 sec
Grid point re-assignment to atoms done       ...    0.0 sec
Grid point division into batches done        ...    0.1 sec
Reduced shell lists constructed in    0.3 sec

Total number of grid points                  ...    54314
Total number of batches                      ...      871
Average number of points per batch           ...       62
Average number of grid points per atom       ...     1108
Average number of shells per batch           ...   154.63 (35.30%)
Average number of basis functions per batch  ...   401.79 (34.76%)
Average number of large shells per batch     ...   106.32 (68.75%)
Average number of large basis fcns per batch ...   278.16 (69.23%)
Maximum spatial batch extension              ...   6.33, 16.12,  8.66 au
Average spatial batch extension              ...   0.09,  0.12,  0.10 au

Overlap Fitting                  UseSFitting ... on
Constructing numerical overlap ... done (      0.2 sec)
Inverting numerical overlap    ... done (      0.2 sec)
Obtaining analytic overlap     ... done (      0.0 sec)
Final contraction and storage  ... done (      0.6 sec)

Time for X-Grid setup             =    4.209 sec
--------------
SCF ITERATIONS
--------------
ITER       Energy         Delta-E        Max-DP      RMS-DP      [F,P]     Damp
               ***  Starting incremental Fock matrix formation  ***
  0  -2148.3473915349   0.000000000000 0.06290470  0.00065464  0.1519082 0.7000
  1  -2148.6096543453  -0.262262810336 0.07664486  0.00055900  0.0954288 0.7000
                               ***Turning on DIIS***
  2  -2148.7408387288  -0.131184383531 0.19970940  0.00132260  0.0543162 0.0000
  3  -2148.9524398688  -0.211601139992 0.04523230  0.00033894  0.0373055 0.0000
  4  -2148.9890498401  -0.036609971289 0.01974757  0.00015146  0.0064617 0.0000
  5  -2148.9903024713  -0.001252631185 0.00740928  0.00006106  0.0036860 0.0000
                      *** Initiating the SOSCF procedure ***
                           *** Shutting down DIIS ***
                      *** Re-Reading the Fockian *** 
                      *** Removing any level shift *** 
ITER      Energy       Delta-E        Grad      Rot      Max-DP    RMS-DP
  6  -2148.99059993  -0.0002974556  0.001355  0.001355  0.003383  0.000032
               *** Restarting incremental Fock matrix formation ***
  7  -2148.99071803  -0.0001181030  0.000928  0.002729  0.015984  0.000151
  8  -2148.99076468  -0.0000466515  0.000354  0.003072  0.015437  0.000115
  9  -2148.99077786  -0.0000131828  0.000228  0.000632  0.013182  0.000097
 10  -2148.99078424  -0.0000063735  0.000039  0.000138  0.001878  0.000013
 11  -2148.99078446  -0.0000002212  0.000029  0.000084  0.000613  0.000005
 12  -2148.99078453  -0.0000000728  0.000008  0.000027  0.000487  0.000003
 13  -2148.99078445   0.0000000832  0.000007  0.000011  0.000308  0.000002
                  ***Gradient check signals convergence***
              ***Rediagonalizing the Fockian in SOSCF/NRSCF***

               *****************************************************
               *                     SUCCESS                       *
               *           SCF CONVERGED AFTER  14 CYCLES          *
               *****************************************************

Old exchange energy                            =    -71.717686198 Eh
New exchange energy                            =    -71.718140527 Eh
Exchange energy change after final integration =     -0.000454330 Eh
Total energy after final integration           =  -2148.991238854 Eh
Final COS-X integration done in                =    49.372 sec

----------------
TOTAL SCF ENERGY
----------------

Total Energy       :        -2148.99123885 Eh          -58477.02452 eV

Components:
Nuclear Repulsion  :         3226.10041166 Eh           87786.65519 eV
Electronic Energy  :        -5375.09165052 Eh         -146263.67971 eV
One Electron Energy:        -9351.35223128 Eh         -254463.23087 eV
Two Electron Energy:         3976.26058076 Eh          108199.55116 eV

Virial components:
Potential Energy   :        -4289.48407560 Eh         -116722.79577 eV
Kinetic Energy     :         2140.49283675 Eh           58245.77125 eV
Virial Ratio       :            2.00397030


DFT components:
N(Alpha)           :      122.999997402380 electrons
N(Beta)            :      122.999997402380 electrons
N(Total)           :      245.999994804759 electrons
E(XC)              :     -169.445978616989 Eh       

---------------
SCF CONVERGENCE
---------------

  Last Energy change         ...   -7.5941e-08  Tolerance :   1.0000e-08
  Last MAX-Density change    ...    3.8871e-14  Tolerance :   1.0000e-07
  Last RMS-Density change    ...    2.5801e-16  Tolerance :   5.0000e-09
  Last Orbital Gradient      ...    1.1786e-06  Tolerance :   1.0000e-05
  Last Orbital Rotation      ...    4.7266e-06  Tolerance :   1.0000e-05

             **** THE GBW FILE WAS UPDATED (total.gbw) ****
             **** DENSITY FILE WAS UPDATED (total.scfp.tmp) ****
             **** ENERGY FILE WAS UPDATED (total.en.tmp) ****
----------------
ORBITAL ENERGIES
----------------

  NO   OCC          E(Eh)            E(eV) 
   0   2.0000     -88.991424     -2421.5798 
   1   2.0000     -88.987557     -2421.4745 
   2   2.0000     -19.338623      -526.2307 
   3   2.0000     -19.335675      -526.1505 
   4   2.0000     -14.483660      -394.1204 
   5   2.0000     -14.475390      -393.8954 
   6   2.0000     -14.475358      -393.8945 
   7   2.0000     -10.368923      -282.1527 
   8   2.0000     -10.368019      -282.1281 
   9   2.0000     -10.344633      -281.4918 
  10   2.0000     -10.339018      -281.3390 
  11   2.0000     -10.337113      -281.2871 
  12   2.0000     -10.332984      -281.1748 
  13   2.0000     -10.329529      -281.0808 
  14   2.0000     -10.328876      -281.0630 
  15   2.0000     -10.324433      -280.9421 
  16   2.0000     -10.319026      -280.7950 
  17   2.0000     -10.316722      -280.7323 
  18   2.0000     -10.306050      -280.4419 
  19   2.0000     -10.304633      -280.4033 
  20   2.0000     -10.299357      -280.2598 
  21   2.0000     -10.299280      -280.2577 
  22   2.0000     -10.298136      -280.2265 
  23   2.0000     -10.298070      -280.2247 
  24   2.0000     -10.297419      -280.2070 
  25   2.0000     -10.297395      -280.2064 
  26   2.0000     -10.297235      -280.2020 
  27   2.0000     -10.296005      -280.1685 
  28   2.0000     -10.294616      -280.1307 
  29   2.0000     -10.292684      -280.0782 
  30   2.0000     -10.291705      -280.0515 
  31   2.0000     -10.291070      -280.0343 
  32   2.0000     -10.290942      -280.0308 
  33   2.0000     -10.281393      -279.7709 
  34   2.0000      -8.087214      -220.0643 
  35   2.0000      -8.083323      -219.9584 
  36   2.0000      -6.040578      -164.3725 
  37   2.0000      -6.036760      -164.2686 
  38   2.0000      -6.036604      -164.2643 
  39   2.0000      -6.034105      -164.1964 
  40   2.0000      -6.032534      -164.1536 
  41   2.0000      -6.030336      -164.0938 
  42   2.0000      -1.286342       -35.0032 
  43   2.0000      -1.281500       -34.8714 
  44   2.0000      -1.112438       -30.2710 
  45   2.0000      -1.034537       -28.1512 
  46   2.0000      -1.012506       -27.5517 
  47   2.0000      -1.001689       -27.2573 
  48   2.0000      -0.985166       -26.8077 
  49   2.0000      -0.976712       -26.5777 
  50   2.0000      -0.972486       -26.4627 
  51   2.0000      -0.937302       -25.5053 
  52   2.0000      -0.926561       -25.2130 
  53   2.0000      -0.914643       -24.8887 
  54   2.0000      -0.905548       -24.6412 
  55   2.0000      -0.877650       -23.8821 
  56   2.0000      -0.875739       -23.8301 
  57   2.0000      -0.852169       -23.1887 
  58   2.0000      -0.850645       -23.1472 
  59   2.0000      -0.845937       -23.0191 
  60   2.0000      -0.817768       -22.2526 
  61   2.0000      -0.799845       -21.7649 
  62   2.0000      -0.777003       -21.1433 
  63   2.0000      -0.771679       -20.9985 
  64   2.0000      -0.754432       -20.5291 
  65   2.0000      -0.735012       -20.0007 
  66   2.0000      -0.728153       -19.8140 
  67   2.0000      -0.719867       -19.5886 
  68   2.0000      -0.707120       -19.2417 
  69   2.0000      -0.691021       -18.8036 
  70   2.0000      -0.675955       -18.3937 
  71   2.0000      -0.667723       -18.1697 
  72   2.0000      -0.665031       -18.0964 
  73   2.0000      -0.641952       -17.4684 
  74   2.0000      -0.635708       -17.2985 
  75   2.0000      -0.620457       -16.8835 
  76   2.0000      -0.614796       -16.7294 
  77   2.0000      -0.609369       -16.5818 
  78   2.0000      -0.605357       -16.4726 
  79   2.0000      -0.597019       -16.2457 
  80   2.0000      -0.590126       -16.0582 
  81   2.0000      -0.589855       -16.0508 
  82   2.0000      -0.569019       -15.4838 
  83   2.0000      -0.567993       -15.4559 
  84   2.0000      -0.565171       -15.3791 
  85   2.0000      -0.564283       -15.3549 
  86   2.0000      -0.556031       -15.1304 
  87   2.0000      -0.552993       -15.0477 
  88   2.0000      -0.545339       -14.8394 
  89   2.0000      -0.539503       -14.6806 
  90   2.0000      -0.534142       -14.5347 
  91   2.0000      -0.526283       -14.3209 
  92   2.0000      -0.515073       -14.0158 
  93   2.0000      -0.509298       -13.8587 
  94   2.0000      -0.505418       -13.7531 
  95   2.0000      -0.492427       -13.3996 
  96   2.0000      -0.491314       -13.3693 
  97   2.0000      -0.480610       -13.0781 
  98   2.0000      -0.476374       -12.9628 
  99   2.0000      -0.476108       -12.9556 
 100   2.0000      -0.474321       -12.9069 
 101   2.0000      -0.473199       -12.8764 
 102   2.0000      -0.469914       -12.7870 
 103   2.0000      -0.465155       -12.6575 
 104   2.0000      -0.450763       -12.2659 
 105   2.0000      -0.448785       -12.2121 
 106   2.0000      -0.442686       -12.0461 
 107   2.0000      -0.442143       -12.0313 
 108   2.0000      -0.437374       -11.9016 
 109   2.0000      -0.433889       -11.8067 
 110   2.0000      -0.419057       -11.4031 
 111   2.0000      -0.413690       -11.2571 
 112   2.0000      -0.406783       -11.0691 
 113   2.0000      -0.392939       -10.6924 
 114   2.0000      -0.376044       -10.2327 
 115   2.0000      -0.360369        -9.8061 
 116   2.0000      -0.349322        -9.5055 
 117   2.0000      -0.342912        -9.3311 
 118   2.0000      -0.339403        -9.2356 
 119   2.0000      -0.333797        -9.0831 
 120   2.0000      -0.305722        -8.3191 
 121   2.0000      -0.295225        -8.0335 
 122   2.0000      -0.276597        -7.5266 
 123   0.0000      -0.001039        -0.0283 
 124   0.0000       0.000752         0.0205 
 125   0.0000       0.023078         0.6280 
 126   0.0000       0.048138         1.3099 
 127   0.0000       0.065956         1.7947 
 128   0.0000       0.076575         2.0837 
 129   0.0000       0.078550         2.1375 
 130   0.0000       0.090935         2.4745 
 131   0.0000       0.094260         2.5649 
 132   0.0000       0.105572         2.8727 
 133   0.0000       0.111115         3.0236 
 134   0.0000       0.112772         3.0687 
 135   0.0000       0.125490         3.4148 
 136   0.0000       0.129530         3.5247 
 137   0.0000       0.131380         3.5750 
 138   0.0000       0.136021         3.7013 
 139   0.0000       0.142463         3.8766 
 140   0.0000       0.143266         3.8985 
 141   0.0000       0.146258         3.9799 
 142   0.0000       0.154365         4.2005 
 143   0.0000       0.159164         4.3311 
 144   0.0000       0.163944         4.4612 
 145   0.0000       0.166797         4.5388 
 146   0.0000       0.169142         4.6026 
 147   0.0000       0.170748         4.6463 
 148   0.0000       0.173985         4.7344 
 149   0.0000       0.177324         4.8252 
 150   0.0000       0.179124         4.8742 
 151   0.0000       0.180635         4.9153 
 152   0.0000       0.185580         5.0499 
 153   0.0000       0.188642         5.1332 
 154   0.0000       0.197051         5.3620 
 155   0.0000       0.199172         5.4197 
 156   0.0000       0.206107         5.6085 
 157   0.0000       0.206457         5.6180 
 158   0.0000       0.211079         5.7437 
 159   0.0000       0.214427         5.8349 
 160   0.0000       0.219461         5.9718 
 161   0.0000       0.220002         5.9866 
 162   0.0000       0.226916         6.1747 
 163   0.0000       0.234102         6.3702 
 164   0.0000       0.235312         6.4032 
 165   0.0000       0.242789         6.6066 
 166   0.0000       0.250217         6.8088 
 167   0.0000       0.254690         6.9305 
 168   0.0000       0.259587         7.0637 
 169   0.0000       0.264237         7.1902 
 170   0.0000       0.265880         7.2350 
 171   0.0000       0.268840         7.3155 
 172   0.0000       0.274473         7.4688 
 173   0.0000       0.276941         7.5360 
 174   0.0000       0.279744         7.6122 
 175   0.0000       0.280091         7.6217 
 176   0.0000       0.286548         7.7974 
 177   0.0000       0.289170         7.8687 
 178   0.0000       0.291118         7.9217 
 179   0.0000       0.291879         7.9424 
 180   0.0000       0.292119         7.9490 
 181   0.0000       0.296894         8.0789 
 182   0.0000       0.297747         8.1021 
 183   0.0000       0.302892         8.2421 
 184   0.0000       0.307073         8.3559 
 185   0.0000       0.308255         8.3880 
 186   0.0000       0.310336         8.4447 
 187   0.0000       0.319638         8.6978 
 188   0.0000       0.321813         8.7570 
 189   0.0000       0.323786         8.8107 
 190   0.0000       0.328758         8.9459 
 191   0.0000       0.332721         9.0538 
 192   0.0000       0.335711         9.1352 
 193   0.0000       0.338723         9.2171 
 194   0.0000       0.342060         9.3079 
 195   0.0000       0.344354         9.3704 
 196   0.0000       0.345380         9.3983 
 197   0.0000       0.350578         9.5397 
 198   0.0000       0.353116         9.6088 
 199   0.0000       0.355101         9.6628 
 200   0.0000       0.360402         9.8070 
 201   0.0000       0.363769         9.8987 
 202   0.0000       0.367577        10.0023 
 203   0.0000       0.368663        10.0318 
 204   0.0000       0.372770        10.1436 
 205   0.0000       0.375243        10.2109 
 206   0.0000       0.377684        10.2773 
 207   0.0000       0.380309        10.3487 
 208   0.0000       0.381249        10.3743 
 209   0.0000       0.385297        10.4845 
 210   0.0000       0.388948        10.5838 
 211   0.0000       0.392031        10.6677 
 212   0.0000       0.395456        10.7609 
 213   0.0000       0.397060        10.8046 
 214   0.0000       0.400270        10.8919 
 215   0.0000       0.404521        11.0076 
 216   0.0000       0.407188        11.0802 
 217   0.0000       0.410841        11.1795 
 218   0.0000       0.411234        11.1902 
 219   0.0000       0.415902        11.3173 
 220   0.0000       0.419430        11.4133 
 221   0.0000       0.420770        11.4497 
 222   0.0000       0.424117        11.5408 
 223   0.0000       0.429010        11.6739 
 224   0.0000       0.431289        11.7360 
 225   0.0000       0.434374        11.8199 
 226   0.0000       0.438677        11.9370 
 227   0.0000       0.441626        12.0173 
 228   0.0000       0.446137        12.1400 
 229   0.0000       0.449907        12.2426 
 230   0.0000       0.451051        12.2737 
 231   0.0000       0.453989        12.3537 
 232   0.0000       0.458473        12.4757 
 233   0.0000       0.462264        12.5788 
 234   0.0000       0.463243        12.6055 
 235   0.0000       0.465299        12.6614 
 236   0.0000       0.467126        12.7111 
 237   0.0000       0.470253        12.7962 
 238   0.0000       0.473754        12.8915 
 239   0.0000       0.480561        13.0767 
 240   0.0000       0.482203        13.1214 
 241   0.0000       0.482825        13.1383 
 242   0.0000       0.485903        13.2221 
 243   0.0000       0.490677        13.3520 
 244   0.0000       0.492004        13.3881 
 245   0.0000       0.495510        13.4835 
 246   0.0000       0.497484        13.5372 
 247   0.0000       0.500255        13.6126 
 248   0.0000       0.504697        13.7335 
 249   0.0000       0.508812        13.8455 
 250   0.0000       0.509665        13.8687 
 251   0.0000       0.515136        14.0176 
 252   0.0000       0.519596        14.1389 
 253   0.0000       0.523452        14.2439 
 254   0.0000       0.524129        14.2623 
 255   0.0000       0.525463        14.2986 
 256   0.0000       0.528348        14.3771 
 257   0.0000       0.529828        14.4174 
 258   0.0000       0.533610        14.5203 
 259   0.0000       0.536354        14.5949 
 260   0.0000       0.541203        14.7269 
 261   0.0000       0.542448        14.7608 
 262   0.0000       0.544620        14.8199 
 263   0.0000       0.545199        14.8356 
 264   0.0000       0.550125        14.9697 
 265   0.0000       0.553828        15.0704 
 266   0.0000       0.555708        15.1216 
 267   0.0000       0.560778        15.2596 
 268   0.0000       0.563704        15.3392 
 269   0.0000       0.565353        15.3840 
 270   0.0000       0.567074        15.4309 
 271   0.0000       0.570260        15.5176 
 272   0.0000       0.575705        15.6657 
 273   0.0000       0.580528        15.7970 
 274   0.0000       0.582859        15.8604 
 275   0.0000       0.584510        15.9053 
 276   0.0000       0.587663        15.9911 
 277   0.0000       0.594553        16.1786 
 278   0.0000       0.595553        16.2058 
 279   0.0000       0.600728        16.3466 
 280   0.0000       0.605666        16.4810 
 281   0.0000       0.607437        16.5292 
 282   0.0000       0.615339        16.7442 
 283   0.0000       0.616775        16.7833 
 284   0.0000       0.618797        16.8383 
 285   0.0000       0.625319        17.0158 
 286   0.0000       0.627133        17.0652 
 287   0.0000       0.637827        17.3562 
 288   0.0000       0.638485        17.3741 
 289   0.0000       0.648954        17.6589 
 290   0.0000       0.651837        17.7374 
 291   0.0000       0.652875        17.7656 
 292   0.0000       0.662519        18.0281 
 293   0.0000       0.663034        18.0421 
 294   0.0000       0.669852        18.2276 
 295   0.0000       0.673879        18.3372 
 296   0.0000       0.677560        18.4373 
 297   0.0000       0.679498        18.4901 
 298   0.0000       0.682922        18.5833 
 299   0.0000       0.689535        18.7632 
 300   0.0000       0.691425        18.8146 
 301   0.0000       0.697369        18.9764 
 302   0.0000       0.698195        18.9988 
 303   0.0000       0.708250        19.2725 
 304   0.0000       0.714082        19.4312 
 305   0.0000       0.716105        19.4862 
 306   0.0000       0.723109        19.6768 
 307   0.0000       0.723738        19.6939 
 308   0.0000       0.725382        19.7386 
 309   0.0000       0.726794        19.7771 
 310   0.0000       0.730355        19.8740 
 311   0.0000       0.734252        19.9800 
 312   0.0000       0.736874        20.0514 
 313   0.0000       0.740363        20.1463 
 314   0.0000       0.745636        20.2898 
 315   0.0000       0.748646        20.3717 
 316   0.0000       0.751049        20.4371 
 317   0.0000       0.751831        20.4584 
 318   0.0000       0.755734        20.5646 
 319   0.0000       0.761637        20.7252 
 320   0.0000       0.765883        20.8407 
 321   0.0000       0.768999        20.9255 
 322   0.0000       0.770184        20.9578 
 323   0.0000       0.771790        21.0015 
 324   0.0000       0.776019        21.1166 
 325   0.0000       0.785013        21.3613 
 326   0.0000       0.790111        21.5000 
 327   0.0000       0.792642        21.5689 
 328   0.0000       0.795080        21.6352 
 329   0.0000       0.799083        21.7442 
 330   0.0000       0.799523        21.7561 
 331   0.0000       0.805908        21.9299 
 332   0.0000       0.809943        22.0397 
 333   0.0000       0.816268        22.2118 
 334   0.0000       0.817220        22.2377 
 335   0.0000       0.821879        22.3645 
 336   0.0000       0.824221        22.4282 
 337   0.0000       0.827583        22.5197 
 338   0.0000       0.829824        22.5807 
 339   0.0000       0.837885        22.8000 
 340   0.0000       0.842025        22.9127 
 341   0.0000       0.851491        23.1703 
 342   0.0000       0.853476        23.2242 
 343   0.0000       0.857766        23.3410 
 344   0.0000       0.865032        23.5387 
 345   0.0000       0.868755        23.6400 
 346   0.0000       0.871248        23.7079 
 347   0.0000       0.877374        23.8746 
 348   0.0000       0.880449        23.9582 
 349   0.0000       0.886328        24.1182 
 350   0.0000       0.895422        24.3657 
 351   0.0000       0.905471        24.6391 
 352   0.0000       0.909889        24.7593 
 353   0.0000       0.912463        24.8294 
 354   0.0000       0.915938        24.9239 
 355   0.0000       0.917970        24.9792 
 356   0.0000       0.928336        25.2613 
 357   0.0000       0.931889        25.3580 
 358   0.0000       0.933803        25.4101 
 359   0.0000       0.937270        25.5044 
 360   0.0000       0.938241        25.5308 
 361   0.0000       0.943821        25.6827 
 362   0.0000       0.950921        25.8759 
 363   0.0000       0.952598        25.9215 
 364   0.0000       0.954332        25.9687 
 365   0.0000       0.956869        26.0377 
 366   0.0000       0.962496        26.1908 
 367   0.0000       0.964610        26.2484 
 368   0.0000       0.970566        26.4104 
 369   0.0000       0.975957        26.5571 
 370   0.0000       0.985680        26.8217 
 371   0.0000       0.990021        26.9398 
 372   0.0000       0.992645        27.0112 
 373   0.0000       0.995290        27.0832 
 374   0.0000       0.999211        27.1899 
 375   0.0000       1.008561        27.4443 
 376   0.0000       1.014423        27.6039 
 377   0.0000       1.017715        27.6934 
 378   0.0000       1.026254        27.9258 
 379   0.0000       1.029128        28.0040 
 380   0.0000       1.031756        28.0755 
 381   0.0000       1.036137        28.1947 
 382   0.0000       1.049043        28.5459 
 383   0.0000       1.056345        28.7446 
 384   0.0000       1.060949        28.8699 
 385   0.0000       1.062606        28.9150 
 386   0.0000       1.070067        29.1180 
 387   0.0000       1.077608        29.3232 
 388   0.0000       1.079442        29.3731 
 389   0.0000       1.083784        29.4912 
 390   0.0000       1.088169        29.6106 
 391   0.0000       1.091318        29.6963 
 392   0.0000       1.096765        29.8445 
 393   0.0000       1.106372        30.1059 
 394   0.0000       1.108933        30.1756 
 395   0.0000       1.120852        30.4999 
 396   0.0000       1.123752        30.5788 
 397   0.0000       1.126262        30.6472 
 398   0.0000       1.132450        30.8155 
 399   0.0000       1.134635        30.8750 
 400   0.0000       1.139500        31.0074 
 401   0.0000       1.146604        31.2007 
 402   0.0000       1.147725        31.2312 
 403   0.0000       1.155410        31.4403 
 404   0.0000       1.162483        31.6328 
 405   0.0000       1.169516        31.8241 
 406   0.0000       1.171781        31.8858 
 407   0.0000       1.176565        32.0160 
 408   0.0000       1.178303        32.0633 
 409   0.0000       1.188472        32.3400 
 410   0.0000       1.190585        32.3975 
 411   0.0000       1.198663        32.6173 
 412   0.0000       1.204798        32.7842 
 413   0.0000       1.210721        32.9454 
 414   0.0000       1.215683        33.0804 
 415   0.0000       1.216846        33.1121 
 416   0.0000       1.219207        33.1763 
 417   0.0000       1.224766        33.3276 
 418   0.0000       1.228887        33.4397 
 419   0.0000       1.232499        33.5380 
 420   0.0000       1.241069        33.7712 
 421   0.0000       1.242629        33.8137 
 422   0.0000       1.253068        34.0977 
 423   0.0000       1.260822        34.3087 
 424   0.0000       1.265346        34.4318 
 425   0.0000       1.281094        34.8603 
 426   0.0000       1.284872        34.9631 
 427   0.0000       1.286261        35.0009 
 428   0.0000       1.291227        35.1361 
 429   0.0000       1.298740        35.3405 
 430   0.0000       1.306548        35.5530 
 431   0.0000       1.313068        35.7304 
 432   0.0000       1.315595        35.7992 
 433   0.0000       1.318856        35.8879 
 434   0.0000       1.322864        35.9970 
 435   0.0000       1.325260        36.0622 
 436   0.0000       1.335873        36.3510 
 437   0.0000       1.342972        36.5441 
 438   0.0000       1.343683        36.5635 
 439   0.0000       1.346766        36.6474 
 440   0.0000       1.354158        36.8485 
 441   0.0000       1.357461        36.9384 
 442   0.0000       1.365704        37.1627 
 443   0.0000       1.370183        37.2846 
 444   0.0000       1.382502        37.6198 
 445   0.0000       1.385469        37.7005 
 446   0.0000       1.391563        37.8664 
 447   0.0000       1.396375        37.9973 
 448   0.0000       1.400625        38.1129 
 449   0.0000       1.409509        38.3547 
 450   0.0000       1.411888        38.4194 
 451   0.0000       1.416330        38.5403 
 452   0.0000       1.425198        38.7816 
 453   0.0000       1.428505        38.8716 
 454   0.0000       1.430399        38.9231 
 455   0.0000       1.436049        39.0769 
 456   0.0000       1.441658        39.2295 
 457   0.0000       1.444559        39.3084 
 458   0.0000       1.447010        39.3751 
 459   0.0000       1.450036        39.4575 
 460   0.0000       1.455527        39.6069 
 461   0.0000       1.461308        39.7642 
 462   0.0000       1.469591        39.9896 
 463   0.0000       1.473695        40.1013 
 464   0.0000       1.479550        40.2606 
 465   0.0000       1.484735        40.4017 
 466   0.0000       1.495029        40.6818 
 467   0.0000       1.499101        40.7926 
 468   0.0000       1.506207        40.9860 
 469   0.0000       1.511468        41.1291 
 470   0.0000       1.513811        41.1929 
 471   0.0000       1.515379        41.2356 
 472   0.0000       1.522034        41.4166 
 473   0.0000       1.526836        41.5473 
 474   0.0000       1.536897        41.8211 
 475   0.0000       1.538152        41.8552 
 476   0.0000       1.542478        41.9730 
 477   0.0000       1.546951        42.0947 
 478   0.0000       1.550270        42.1850 
 479   0.0000       1.552017        42.2325 
 480   0.0000       1.554525        42.3008 
 481   0.0000       1.561889        42.5012 
 482   0.0000       1.569573        42.7103 
 483   0.0000       1.571458        42.7615 
 484   0.0000       1.579103        42.9696 
 485   0.0000       1.581907        43.0459 
 486   0.0000       1.588561        43.2269 
 487   0.0000       1.597653        43.4743 
 488   0.0000       1.598904        43.5084 
 489   0.0000       1.602586        43.6086 
 490   0.0000       1.605216        43.6801 
 491   0.0000       1.608396        43.7667 
 492   0.0000       1.612807        43.8867 
 493   0.0000       1.613800        43.9137 
 494   0.0000       1.618175        44.0328 
 495   0.0000       1.623898        44.1885 
 496   0.0000       1.626566        44.2611 
 497   0.0000       1.631268        44.3891 
 498   0.0000       1.633720        44.4558 
 499   0.0000       1.636383        44.5282 
 500   0.0000       1.638476        44.5852 
 501   0.0000       1.644919        44.7605 
 502   0.0000       1.647974        44.8437 
 503   0.0000       1.648802        44.8662 
 504   0.0000       1.660397        45.1817 
 505   0.0000       1.665005        45.3071 
 506   0.0000       1.671450        45.4825 
 507   0.0000       1.674107        45.5548 
 508   0.0000       1.679670        45.7062 
 509   0.0000       1.681502        45.7560 
 510   0.0000       1.689194        45.9653 
 511   0.0000       1.694551        46.1111 
 512   0.0000       1.698557        46.2201 
 513   0.0000       1.705845        46.4184 
 514   0.0000       1.706617        46.4394 
 515   0.0000       1.713400        46.6240 
 516   0.0000       1.717962        46.7481 
 517   0.0000       1.722843        46.8809 
 518   0.0000       1.726773        46.9879 
 519   0.0000       1.730211        47.0814 
 520   0.0000       1.731163        47.1073 
 521   0.0000       1.746042        47.5122 
 522   0.0000       1.750974        47.6464 
 523   0.0000       1.761129        47.9227 
 524   0.0000       1.768452        48.1220 
 525   0.0000       1.776276        48.3349 
 526   0.0000       1.780216        48.4421 
 527   0.0000       1.781895        48.4878 
 528   0.0000       1.783871        48.5416 
 529   0.0000       1.788144        48.6579 
 530   0.0000       1.794434        48.8290 
 531   0.0000       1.801105        49.0106 
 532   0.0000       1.804071        49.0913 
 533   0.0000       1.810334        49.2617 
 534   0.0000       1.814877        49.3853 
 535   0.0000       1.818164        49.4748 
 536   0.0000       1.822705        49.5983 
 537   0.0000       1.832455        49.8636 
 538   0.0000       1.837311        49.9958 
 539   0.0000       1.841353        50.1058 
 540   0.0000       1.848160        50.2910 
 541   0.0000       1.858388        50.5693 
 542   0.0000       1.866235        50.7828 
 543   0.0000       1.869307        50.8664 
 544   0.0000       1.882285        51.2196 
 545   0.0000       1.889782        51.4236 
 546   0.0000       1.899934        51.6998 
 547   0.0000       1.903612        51.7999 
 548   0.0000       1.911627        52.0180 
 549   0.0000       1.914138        52.0863 
 550   0.0000       1.915196        52.1151 
 551   0.0000       1.922818        52.3226 
 552   0.0000       1.925421        52.3934 
 553   0.0000       1.930598        52.5342 
 554   0.0000       1.938322        52.7444 
 555   0.0000       1.945993        52.9532 
 556   0.0000       1.948715        53.0272 
 557   0.0000       1.950536        53.0768 
 558   0.0000       1.963043        53.4171 
 559   0.0000       1.969066        53.5810 
 560   0.0000       1.975057        53.7440 
 561   0.0000       1.980430        53.8902 
 562   0.0000       1.982096        53.9356 
 563   0.0000       1.987145        54.0730 
 564   0.0000       1.988014        54.0966 
 565   0.0000       1.991661        54.1959 
 566   0.0000       2.001102        54.4528 
 567   0.0000       2.008517        54.6545 
 568   0.0000       2.011776        54.7432 
 569   0.0000       2.016083        54.8604 
 570   0.0000       2.022474        55.0343 
 571   0.0000       2.035533        55.3897 
 572   0.0000       2.043362        55.6027 
 573   0.0000       2.046619        55.6913 
 574   0.0000       2.047660        55.7197 
 575   0.0000       2.051068        55.8124 
 576   0.0000       2.055059        55.9210 
 577   0.0000       2.063639        56.1545 
 578   0.0000       2.073484        56.4224 
 579   0.0000       2.083172        56.6860 
 580   0.0000       2.085252        56.7426 
 581   0.0000       2.088923        56.8425 
 582   0.0000       2.091797        56.9207 
 583   0.0000       2.092857        56.9495 
 584   0.0000       2.098360        57.0993 
 585   0.0000       2.101909        57.1959 
 586   0.0000       2.108801        57.3834 
 587   0.0000       2.116974        57.6058 
 588   0.0000       2.117547        57.6214 
 589   0.0000       2.128127        57.9093 
 590   0.0000       2.141959        58.2857 
 591   0.0000       2.148857        58.4734 
 592   0.0000       2.152185        58.5639 
 593   0.0000       2.155339        58.6497 
 594   0.0000       2.162082        58.8332 
 595   0.0000       2.163298        58.8663 
 596   0.0000       2.166951        58.9657 
 597   0.0000       2.170713        59.0681 
 598   0.0000       2.172880        59.1271 
 599   0.0000       2.176586        59.2279 
 600   0.0000       2.180573        59.3364 
 601   0.0000       2.187980        59.5380 
 602   0.0000       2.200003        59.8651 
 603   0.0000       2.205592        60.0172 
 604   0.0000       2.211619        60.1812 
 605   0.0000       2.213526        60.2331 
 606   0.0000       2.225843        60.5683 
 607   0.0000       2.228230        60.6332 
 608   0.0000       2.238834        60.9218 
 609   0.0000       2.243091        61.0376 
 610   0.0000       2.252450        61.2923 
 611   0.0000       2.262782        61.5734 
 612   0.0000       2.268993        61.7424 
 613   0.0000       2.275882        61.9299 
 614   0.0000       2.283682        62.1421 
 615   0.0000       2.286934        62.2306 
 616   0.0000       2.290816        62.3363 
 617   0.0000       2.299302        62.5672 
 618   0.0000       2.302145        62.6445 
 619   0.0000       2.304702        62.7141 
 620   0.0000       2.312495        62.9262 
 621   0.0000       2.321566        63.1730 
 622   0.0000       2.326322        63.3024 
 623   0.0000       2.331818        63.4520 
 624   0.0000       2.340173        63.6793 
 625   0.0000       2.348063        63.8941 
 626   0.0000       2.352360        64.0110 
 627   0.0000       2.354538        64.0702 
 628   0.0000       2.367243        64.4160 
 629   0.0000       2.378722        64.7283 
 630   0.0000       2.393527        65.1312 
 631   0.0000       2.398228        65.2591 
 632   0.0000       2.402115        65.3649 
 633   0.0000       2.410230        65.5857 
 634   0.0000       2.413123        65.6644 
 635   0.0000       2.420241        65.8581 
 636   0.0000       2.424304        65.9687 
 637   0.0000       2.432114        66.1812 
 638   0.0000       2.437240        66.3207 
 639   0.0000       2.442672        66.4685 
 640   0.0000       2.445403        66.5428 
 641   0.0000       2.460305        66.9483 
 642   0.0000       2.465737        67.0961 
 643   0.0000       2.473566        67.3092 
 644   0.0000       2.488533        67.7164 
 645   0.0000       2.494319        67.8739 
 646   0.0000       2.498763        67.9948 
 647   0.0000       2.509044        68.2746 
 648   0.0000       2.521963        68.6261 
 649   0.0000       2.532312        68.9077 
 650   0.0000       2.542508        69.1852 
 651   0.0000       2.552949        69.4693 
 652   0.0000       2.561765        69.7092 
 653   0.0000       2.571374        69.9706 
 654   0.0000       2.575186        70.0744 
 655   0.0000       2.583426        70.2986 
 656   0.0000       2.587420        70.4073 
 657   0.0000       2.594579        70.6021 
 658   0.0000       2.599732        70.7423 
 659   0.0000       2.612798        71.0979 
 660   0.0000       2.614987        71.1574 
 661   0.0000       2.620233        71.3002 
 662   0.0000       2.620902        71.3184 
 663   0.0000       2.626125        71.4605 
 664   0.0000       2.639008        71.8111 
 665   0.0000       2.641621        71.8822 
 666   0.0000       2.654000        72.2190 
 667   0.0000       2.655191        72.2514 
 668   0.0000       2.660897        72.4067 
 669   0.0000       2.664131        72.4947 
 670   0.0000       2.668883        72.6240 
 671   0.0000       2.674578        72.7790 
 672   0.0000       2.682624        72.9979 
 673   0.0000       2.688242        73.1508 
 674   0.0000       2.689558        73.1866 
 675   0.0000       2.695532        73.3492 
 676   0.0000       2.702331        73.5342 
 677   0.0000       2.707536        73.6758 
 678   0.0000       2.716029        73.9069 
 679   0.0000       2.717660        73.9513 
[...]
 102   8.432     147.0   0.049757   0.047390  10.532365  10.284891     0.12 (  76->  82)    0.11 (  74->  89)    0.06 (  72->  85)
 103   8.462     146.5   0.007784   0.007162  19.289822  19.009743     0.10 (  76-> 106)    0.07 (  73->  80)    0.04 (  71->  80)
 104   8.471     146.4   0.000190   0.000206  -2.019540  -1.600213     0.13 (  73->  88)    0.09 (  77-> 108)    0.06 (  71->  90)
 105   8.479     146.2   0.005876   0.004648  -5.383693  -7.377190     0.11 (  73->  88)    0.10 (  71->  90)    0.10 (  77-> 111)
 106   8.486     146.1   0.021237   0.019122   1.557052  -0.686832     0.11 (  76-> 106)    0.06 (  54->  79)    0.05 (  73->  80)
 107   8.489     146.1   0.024204   0.022449  -40.470240  -36.771222     0.16 (  54->  79)    0.08 (  56->  79)    0.07 (  54->  78)
 108   8.505     145.8   0.012986   0.010850  -12.157547  -10.182929     0.07 (  76-> 106)    0.03 (  76-> 104)    0.03 (  69->  83)
 109   8.526     145.4   0.002440   0.002257  -8.049298  -8.019788     0.11 (  71->  90)    0.10 (  77-> 111)    0.06 (  70->  88)
 110   8.533     145.3   0.001507   0.001203   3.765687   4.138456     0.17 (  68->  80)    0.05 (  69->  78)    0.04 (  72->  89)
 111   8.563     144.8   0.002399   0.002163  -9.220121  -8.739159     0.12 (  75->  99)    0.07 (  75-> 103)    0.06 (  75-> 101)
 112   8.573     144.6   0.104482   0.095425  -6.783878  -6.944475     0.17 (  77->  85)    0.10 (  76->  82)    0.03 (  72->  89)
 113   8.595     144.3   0.080160   0.073912  -69.883576  -67.351688     0.09 (  69->  85)    0.06 (  77->  85)    0.05 (  48->  78)
 114   8.595     144.2   0.065612   0.063526  21.401342  19.070310     0.21 (  69->  85)    0.06 (  48->  78)    0.05 (  69->  79)
 115   8.600     144.2   0.021917   0.017940  42.474762  40.932921     0.14 (  71->  88)    0.09 (  70->  88)    0.07 (  73->  84)
 116   8.641     143.5   0.036611   0.034036  -23.494986  -23.543765     0.21 (  77->  85)    0.07 (  76->  82)    0.05 (  77-> 112)
 117   8.649     143.4   0.136045   0.132313  -1.081256  -7.425753     0.28 (  77-> 112)    0.06 (  69->  83)    0.04 (  77->  85)
 118   8.653     143.3   0.088008   0.076153  -21.989147  -20.893763     0.28 (  77-> 112)    0.06 (  77->  85)    0.04 (  55->  78)
 119   8.686     142.7   0.003041   0.002601  -6.189430  -5.842804     0.05 (  74-> 105)    0.04 (  71->  88)    0.04 (  74->  93)
 120   8.719     142.2   0.100767   0.097404  -5.499361  -5.161134     0.07 (  75-> 106)    0.05 (  76-> 113)    0.05 (  75->  82)
 121   8.737     141.9   0.023839   0.024323  10.327548  10.359950     0.15 (  77-> 112)    0.08 (  70->  80)    0.06 (  65->  80)
 122   8.749     141.7   0.003929   0.003595   5.938832   5.819330     0.06 (  76-> 113)    0.06 (  69->  79)    0.05 (  69->  80)
 123   8.759     141.5   0.027589   0.025935  -3.918883  -3.303316     0.07 (  69->  79)    0.05 (  62->  83)    0.05 (  71->  88)
 124   8.766     141.4   0.001868   0.001859  -3.901153  -3.955256     0.08 (  76-> 104)    0.04 (  75-> 104)    0.04 (  68->  83)
 125   8.773     141.3   0.021966   0.019944  -22.453327  -20.828847     0.07 (  71->  88)    0.04 (  70->  88)    0.03 (  73->  88)
 126   8.781     141.2   0.007021   0.005806   4.314347   3.375948     0.05 (  69->  80)    0.05 (  68->  78)    0.04 (  68->  79)
 127   8.795     141.0   0.013465   0.012976   5.660278   7.011102     0.04 (  75-> 106)    0.03 (  76->  84)    0.03 (  71->  88)
 128   8.815     140.6   0.030569   0.029507   6.654806   7.084688     0.15 (  75->  82)    0.07 (  71->  88)    0.04 (  77-> 116)
 129   8.831     140.4   0.018858   0.018560   0.798952   0.672221     0.34 (  75->  82)    0.07 (  67->  78)    0.04 (  75->  83)
 130   8.833     140.4   0.004354   0.003903   4.323537   3.909743     0.41 (  67->  78)    0.11 (  67->  79)    0.07 (  67->  80)
 131   8.857     140.0   0.005814   0.005173  -5.314848  -4.700393     0.69 (  76->  84)    0.03 (  76->  88)    0.03 (  72->  84)
 132   8.861     139.9   0.034553   0.031740  -17.451824  -16.409196     0.15 (  75-> 104)    0.10 (  75-> 106)    0.04 (  69->  96)
 133   8.872     139.8   0.017186   0.016628   6.612492   6.706101     0.15 (  52->  79)    0.07 (  64->  78)    0.06 (  65->  80)
 134   8.890     139.5   0.001001   0.000694   2.882368   2.333584     0.10 (  77-> 116)    0.04 (  77-> 114)    0.04 (  77-> 105)
 135   8.903     139.3   0.029571   0.026907  -10.683225  -8.877979     0.05 (  76->  84)    0.04 (  75-> 106)    0.04 (  75-> 104)
 136   8.912     139.1   0.014411   0.012504   7.297471   6.727865     0.20 (  66->  78)    0.12 (  66->  79)    0.08 (  69->  79)
 137   8.932     138.8   0.009606   0.010333  18.909661  18.734927     0.14 (  69->  87)    0.12 (  75-> 106)    0.06 (  68->  87)
 138   8.951     138.5   0.005866   0.005271  20.439000  19.503248     0.15 (  59->  81)    0.09 (  62->  81)    0.07 (  57->  81)
 139   8.963     138.3   0.006172   0.005175  -2.976682  -3.501136     0.11 (  73-> 103)    0.07 (  71-> 102)    0.04 (  71-> 101)
 140   9.005     137.7   0.016387   0.012854  -26.026989  -23.885762     0.09 (  73-> 102)    0.08 (  77-> 116)    0.05 (  73-> 101)
 141   9.018     137.5   0.049303   0.041197  24.244705  22.539282     0.08 (  74->  95)    0.07 (  73->  95)    0.04 (  64->  79)
 142   9.036     137.2   0.006929   0.005687  -10.805386  -10.126092     0.16 (  77->  89)    0.09 (  73->  95)    0.08 (  52->  79)
 143   9.047     137.0   0.008767   0.008071  -4.472192  -4.551976     0.10 (  51->  79)    0.06 (  62->  81)    0.04 (  48->  78)
 144   9.049     137.0   0.008943   0.008011  -27.610063  -25.821925     0.11 (  51->  79)    0.05 (  48->  78)    0.04 (  49->  79)
 145   9.058     136.9   0.007492   0.007994  -7.137587  -7.097703     0.21 (  77->  89)    0.06 (  73->  95)    0.03 (  66->  81)
 146   9.067     136.7   0.013796   0.012361  60.105836  57.394649     0.08 (  77->  89)    0.07 (  52->  79)    0.05 (  64->  79)
 147   9.082     136.5   0.005529   0.006548   7.804238   6.687418     0.16 (  70->  90)    0.10 (  77-> 117)    0.10 (  77-> 118)
 148   9.100     136.2   0.005144   0.004899   5.194094   4.799906     0.17 (  61->  80)    0.09 (  61->  82)    0.09 (  63->  82)
 149   9.107     136.1   0.034181   0.029655  -18.491191  -18.010738     0.05 (  75-> 104)    0.05 (  72->  93)    0.04 (  75-> 113)
 150   9.157     135.4   0.055140   0.046838   5.541779   5.175964     0.05 (  68->  85)    0.05 (  69->  87)    0.03 (  66->  81)
 151   9.162     135.3   0.005347   0.004300  21.419890  19.513006     0.08 (  47->  78)    0.07 (  51->  79)    0.05 (  61->  80)
 152   9.164     135.3   0.029564   0.022734  -1.392698   3.223672     0.04 (  63->  84)    0.03 (  77-> 117)    0.02 (  71->  81)
 153   9.179     135.1   0.011766   0.007920   6.809249   1.084973     0.07 (  71-> 100)    0.05 (  77-> 117)    0.04 (  73-> 101)
 154   9.187     135.0   0.006822   0.005386  -10.740510  -9.349292     0.15 (  75->  84)    0.10 (  75-> 105)    0.07 (  75-> 108)
 155   9.188     134.9   0.000409   0.000332   1.109459   0.971749     0.73 (  75->  84)    0.04 (  76->  84)    0.03 (  75->  88)
 156   9.203     134.7   0.003534   0.003615  -10.666420  -7.537203     0.09 (  68->  85)    0.03 (  76-> 110)    0.03 (  69->  87)
 157   9.223     134.4   0.013512   0.012106  -16.625328  -15.925488     0.06 (  68->  83)    0.05 (  62->  83)    0.04 (  69->  83)
 158   9.247     134.1   0.000234   0.000225  -4.157078  -4.218044     0.23 (  70->  90)    0.16 (  77-> 118)    0.05 (  77-> 117)
 159   9.254     134.0   0.079956   0.073874   8.770408   8.131867     0.14 (  50->  79)    0.13 (  73->  81)    0.08 (  71->  81)
 160   9.265     133.8   0.005250   0.005082  28.000109  27.357601     0.12 (  59->  83)    0.09 (  57->  81)    0.04 (  60->  81)
 161   9.269     133.8   0.251395   0.211080  -41.346821  -39.302050     0.21 (  61->  84)    0.13 (  67->  84)    0.08 (  63->  84)
 162   9.276     133.7   0.033704   0.028175  58.958621  56.271240     0.11 (  59->  83)    0.04 (  60->  81)    0.03 (  57->  81)
 163   9.284     133.5   0.022654   0.019076  14.337529  13.523302     0.05 (  66->  79)    0.04 (  68->  85)    0.04 (  76-> 111)
 164   9.315     133.1   0.006696   0.006006  -21.420205  -20.219470     0.14 (  70->  92)    0.06 (  70->  91)    0.04 (  60->  81)
 165   9.322     133.0   0.034781   0.030863  -13.312245  -12.339143     0.05 (  70->  92)    0.05 (  60->  81)    0.03 (  76->  86)
 166   9.339     132.8   0.020730   0.017076  -11.145250  -10.088206     0.47 (  77->  87)    0.03 (  67->  84)    0.02 (  73->  81)
 167   9.355     132.5   0.036084   0.029900  -4.073802  -3.708503     0.22 (  77->  87)    0.14 (  73->  81)    0.13 (  67->  84)
 168   9.368     132.4   0.020800   0.018269  42.048994  39.997120     0.12 (  63->  82)    0.11 (  63->  86)    0.04 (  58->  82)
 169   9.370     132.3   0.024995   0.022135  -61.300042  -57.905146     0.12 (  77->  87)    0.05 (  74->  82)    0.05 (  63->  82)
 170   9.393     132.0   0.027066   0.021846  -42.357012  -36.922936     0.08 (  75-> 113)    0.06 (  68->  79)    0.03 (  75-> 104)
 171   9.418     131.6   0.047205   0.042378   1.967357   1.205769     0.06 (  74->  82)    0.05 (  76->  86)    0.03 (  66->  79)
 172   9.420     131.6   0.008718   0.007484  -5.558767  -5.238851     0.09 (  76->  86)    0.05 (  77->  89)    0.04 (  66->  89)
 173   9.424     131.6   0.022674   0.019734  -14.629252  -13.091602     0.08 (  76->  86)    0.07 (  70->  81)    0.06 (  70->  95)
 174   9.442     131.3   0.023174   0.019371   7.447175   9.032593     0.10 (  76->  86)    0.09 (  69->  89)    0.05 (  67->  84)
 175   9.453     131.2   0.135386   0.120865  33.297859  30.758581     0.08 (  77-> 118)    0.05 (  65->  84)    0.04 (  77-> 120)
 176   9.460     131.1   0.024846   0.022412  13.875500  11.758847     0.13 (  65->  84)    0.06 (  77-> 118)    0.05 (  65->  88)
 177   9.475     130.9   0.189811   0.164708  18.346125  16.884849     0.13 (  63->  84)    0.03 (  63->  88)    0.03 (  67->  82)
 178   9.479     130.8   0.200907   0.165517  -9.182768  -7.528460     0.17 (  67->  84)    0.15 (  63->  84)    0.04 (  67->  88)
 179   9.482     130.8   0.054361   0.046948  -38.165869  -35.110179     0.10 (  67->  82)    0.06 (  67->  79)    0.05 (  76->  86)
 180   9.489     130.7   0.018635   0.015070  -2.820859  -2.958650     0.09 (  67->  82)    0.08 (  67->  79)    0.04 (  68->  79)
 181   9.514     130.3   0.003273   0.002529  -8.897720  -7.639071     0.16 (  75-> 110)    0.12 (  75-> 111)    0.04 (  75-> 114)
 182   9.532     130.1   0.017100   0.016600  -3.928631  -3.776902     0.04 (  75-> 111)    0.03 (  76->  86)    0.03 (  61->  84)
 183   9.540     130.0   0.052147   0.045119  -2.158028  -2.058295     0.07 (  61->  84)    0.06 (  67->  84)    0.04 (  65->  78)
 184   9.549     129.8   0.011268   0.009705  -5.207866  -4.705891     0.09 (  58->  82)    0.05 (  47->  79)    0.05 (  48->  79)
 185   9.579     129.4   0.006666   0.005190   5.377178   4.528593     0.03 (  72->  82)    0.02 (  69->  89)    0.02 (  72->  89)
 186   9.585     129.4   0.002673   0.002501  -4.593271  -4.114504     0.10 (  70->  81)    0.10 (  71->  81)    0.09 (  70->  95)
 187   9.594     129.2   0.001941   0.002041  -1.149421  -0.977911     0.11 (  65->  84)    0.04 (  72->  89)    0.04 (  74->  85)
 188   9.601     129.1   0.002295   0.002089  10.738392   9.510153     0.06 (  65->  84)    0.03 (  60->  83)    0.03 (  77-> 120)
 189   9.623     128.8   0.005093   0.003835  17.731350  15.852748     0.06 (  76-> 115)    0.05 (  61->  82)    0.04 (  76-> 114)
 190   9.634     128.7   0.008338   0.008582  -35.242287  -35.095294     0.08 (  61->  82)    0.04 (  72->  82)    0.03 (  61->  80)
 191   9.648     128.5   0.013209   0.011933  17.224215  16.643883     0.07 (  61->  82)    0.04 (  72->  82)    0.03 (  61->  80)
 192   9.654     128.4   0.015061   0.014181  -2.894399  -3.044396     0.06 (  60->  83)    0.04 (  55->  81)    0.03 (  71->  81)
 193   9.670     128.2   0.035348   0.031061  -13.429128  -12.622480     0.17 (  71->  81)    0.08 (  65->  78)    0.07 (  73->  81)
 194   9.681     128.1   0.004481   0.004132  -3.931585  -3.882233     0.05 (  71->  97)    0.05 (  70->  97)    0.04 (  73->  97)
 195   9.693     127.9   0.016910   0.015653  -2.261802  -2.222625     0.20 (  75->  86)    0.07 (  74->  86)    0.04 (  75->  85)
 196   9.703     127.8   0.003523   0.002859   6.474429   5.952025     0.06 (  70->  81)    0.05 (  76->  88)    0.05 (  76-> 115)
 197   9.708     127.7   0.000628   0.000421  -2.526251  -2.179249     0.24 (  70->  81)    0.11 (  75->  86)    0.10 (  71->  81)
 198   9.727     127.5   0.005456   0.004620   1.523069   0.919678     0.06 (  76-> 113)    0.04 (  69->  89)    0.04 (  68->  85)
 199   9.730     127.4   0.001560   0.001463  -4.781358  -4.760238     0.09 (  73-> 111)    0.04 (  73-> 109)    0.03 (  73-> 110)
 200   9.760     127.0   0.033172   0.029862  -6.520694  -6.560400     0.15 (  77->  91)    0.05 (  77->  92)    0.04 (  74-> 104)
 201   9.763     127.0   0.000115   0.000097   0.310595   0.578921     0.09 (  74->  84)    0.06 (  72->  84)    0.06 (  76->  88)
 202   9.773     126.9   0.010488   0.010032  -12.620102  -12.397869     0.15 (  75->  86)    0.13 (  74->  86)    0.04 (  72->  86)
 203   9.791     126.6   0.000254   0.000334   4.255361   4.424605     0.09 (  76-> 113)    0.05 (  46->  78)    0.04 (  45->  78)
 204   9.815     126.3   0.029101   0.028032  36.155213  35.269430     0.03 (  61->  84)    0.03 (  71-> 101)    0.03 (  66->  81)
 205   9.818     126.3   0.010657   0.008532  -0.213295  -0.138070     0.05 (  46->  78)    0.03 (  46->  79)    0.03 (  69->  89)
 206   9.834     126.1   0.041600   0.036436  18.157169  17.149012     0.11 (  61->  84)    0.06 (  71-> 102)    0.05 (  71-> 101)
 207   9.837     126.0   0.014137   0.012694  -1.149655  -1.349147     0.08 (  70->  94)    0.06 (  71->  97)    0.03 (  73->  94)
 208   9.847     125.9   0.058083   0.053544   0.752181  -0.248055     0.04 (  49->  80)    0.04 (  66->  81)    0.03 (  61->  84)
 209   9.849     125.9   0.035510   0.031131   2.080899   1.733537     0.07 (  70->  94)    0.03 (  74->  84)    0.03 (  71->  98)
 210   9.871     125.6   0.011078   0.008822  -24.233097  -21.566051     0.06 (  70->  94)    0.04 (  49->  80)    0.03 (  66->  81)
 211   9.875     125.6   0.010025   0.009776  -9.166736  -8.591325     0.03 (  76-> 114)    0.03 (  49->  80)    0.02 (  55->  81)
 212   9.893     125.3   0.016611   0.013651   1.050861   3.471537     0.07 (  75->  86)    0.05 (  72->  84)    0.03 (  70->  94)
 213   9.902     125.2   0.010808   0.010002  -7.278796  -7.131205     0.17 (  76->  88)    0.08 (  74->  84)    0.06 (  72->  84)
 214   9.910     125.1   0.015562   0.013681  -19.193379  -19.424315     0.03 (  69->  93)    0.03 (  76-> 115)    0.03 (  66->  81)
 215   9.925     124.9   0.011981   0.010371  -11.692903  -10.630252     0.05 (  71->  97)    0.05 (  76->  88)    0.04 (  65->  82)
 216   9.934     124.8   0.013354   0.011193   0.452464   0.300828     0.12 (  65->  82)    0.05 (  70->  95)    0.05 (  76->  88)
 217   9.941     124.7   0.006094   0.006311  29.883954  30.874443     0.07 (  75-> 115)    0.05 (  76->  88)    0.05 (  75-> 114)
 218   9.958     124.5   0.019489   0.015810   1.857902   1.989681     0.19 (  76->  88)    0.03 (  75-> 115)    0.02 (  74-> 108)
 219   9.967     124.4   0.005349   0.004448  -0.969713  -2.004268     0.09 (  48->  79)    0.04 (  47->  80)    0.04 (  43->  79)
 220   9.975     124.3   0.021380   0.017907  -6.580278  -6.483164     0.19 (  77->  92)    0.16 (  77->  91)    0.12 (  77->  93)

sTD-DFT done

Total run time:       27.631 sec

           *** ORCA-CIS/TD-DFT FINISHED WITHOUT ERROR ***


-------------------------------------------------------------------------------
                          DFT DISPERSION CORRECTION                            
                                                                               
                              DFTD3 V3.1  Rev 1                                
                              USING zero damping                               
-------------------------------------------------------------------------------
The omegaB97X-D3 functional is recognized. Fit by Chai et al.
Active option DFTDOPT                   ...         3   

molecular C6(AA) [au] = 39991.288207 


            DFT-D V3
 parameters
 s6 scaling factor         :     1.0000 
 rs6 scaling factor        :     1.2810 
 s8 scaling factor         :     1.0000 
 rs8 scaling factor        :     1.0940 
 Damping factor alpha6     :    14.0000 
 Damping factor alpha8     :    16.0000 
 ad hoc parameters k1-k3   :    16.0000     1.3333    -4.0000 

 Edisp/kcal,au: -13.849209958160  -0.022070118545 
 E6   /kcal   :  -6.232762079 
 E8   /kcal   :  -7.616447879 
 % E8         :  54.995540553 

-------------------------   ----------------
Dispersion correction           -0.022070119
-------------------------   ----------------


-------------------------   --------------------
FINAL SINGLE POINT ENERGY     -2149.013308959145
-------------------------   --------------------


                            ***************************************
                            *     ORCA property calculations      *
                            ***************************************

                                    ---------------------
                                    Active property flags
                                    ---------------------
   (+) Dipole Moment
   (+) Quadrupole Moment


------------------------------------------------------------------------------
                       ORCA ELECTRIC PROPERTIES CALCULATION
------------------------------------------------------------------------------

Dipole Moment Calculation                       ... on
Quadrupole Moment Calculation                   ... on
Polarizability Calculation                      ... off
GBWName                                         ... total_job2.gbw
Electron density file                           ... total_job2.scfp.tmp

-------------
DIPOLE MOMENT
-------------
                                X             Y             Z
Electronic contribution:     14.27618      -0.27031      10.74991
Nuclear contribution   :    -15.31748       0.51623     -11.51932
                        -----------------------------------------
Total Dipole Moment    :     -1.04130       0.24592      -0.76941
                        -----------------------------------------
Magnitude (a.u.)       :      1.31787
Magnitude (Debye)      :      3.34975


------------------------
QUADRUPOLE MOMENT (A.U.)
------------------------

                XX           YY           ZZ           XY           XZ           YZ
  NUC     30182.62443    526.92725   2346.01108  -1781.56074    146.61227    550.08221
  EL     -30271.16520   -684.59772  -2495.63402   1773.85091   -149.74789   -545.77806
  TOT       -88.54077   -157.67046   -149.62293     -7.70982     -3.13562      4.30414

--------------------------------------------------------------------------
[[57884,1],1]: A high-performance Open MPI point-to-point messaging module
was unable to find any relevant network interfaces:

Module: OpenFabrics (openib)
  Host: cx1-136-18-1

Another transport will be used instead, although this may result in
lower performance.
--------------------------------------------------------------------------

Timings for individual modules:

Sum of individual times         ...      184.832 sec (=   3.081 min)
GTO integral calculation        ...        6.497 sec (=   0.108 min)   3.5 %
SCF iterations                  ...      148.135 sec (=   2.469 min)  80.1 %
CIS module                      ...       30.199 sec (=   0.503 min)  16.3 %



                             ****ORCA TERMINATED NORMALLY****
TOTAL RUN TIME: 0 days 0 hours 11 minutes 57 seconds 948 msec
