   63
Geometry Step: 2020
    C      6.88179044      3.21973381     -0.58213007      4.11451191
    C      6.60120859      1.86109874     -0.70428427      4.08106134
    C      7.63409963      0.92625726     -0.50452243      4.03271822
    C      8.94427065      1.41242636     -0.23262170      3.86517388
    C      9.22891645      2.78060235     -0.10364658      4.16267897
    C      8.17579493      3.67563489     -0.27423200      4.06870108
    C      7.73750951     -0.52234625     -0.57651831      4.05586342
    C      9.11659800     -0.82935711     -0.38911462      3.86664160
    N      9.81650782      0.34106855     -0.15650119      5.17484839
    C      9.62346460     -2.13545549     -0.46437414      4.16187939
    C      8.72112706     -3.15706770     -0.75316219      4.07332753
    C      7.35591968     -2.88824554     -0.92171664      4.12294588
    C      6.83065937     -1.58747597     -0.81447736      3.97446784
    H      6.67127470     -3.70878692     -1.11593285      0.90677648
    H     10.81629658      0.40591995     -0.00932140      0.78406852
    H      9.07541851     -4.18086181     -0.83403637      0.91654843
    H      5.59720527      1.54250373     -0.96935269      0.91452048
    H     10.23623105      3.12768126      0.11017945      0.91743402
    H      8.35877552      4.74295544     -0.18382273      0.92107605
    H      6.08695936      3.94466798     -0.73410650      0.91948917
    S      1.29656980      0.41430283      1.07904288      6.07868084
    C      1.62707073     -0.75885917     -0.21588802      3.83853789
    N      0.52699661     -1.23796578     -0.78260894      5.15199803
    N     -0.62437029     -0.73500676     -0.25899824      5.17444322
    C     -0.42697488      0.14272494      0.72183853      3.79551252
    C      2.97409291     -1.13290697     -0.58984421      3.83709208
    N      3.27633795     -1.99266510     -1.55260791      5.16040889
    N      4.62209885     -2.17804529     -1.70979433      5.18606511
    C      5.36803517     -1.44645909     -0.89593946      3.80684674
    S      4.39879386     -0.45280058      0.21765986      6.06017980
    C     -6.60618673     -0.09752413     -1.55864211      4.09435880
    C     -7.17500244     -0.74413859     -2.65391931      4.07573719
    C     -6.63117775     -1.94107933     -3.12493146      4.07606392
    C     -5.50088190     -2.47975377     -2.50721445      4.07589495
    C     -4.92414516     -1.83242907     -1.41656536      4.08099575
    C     -5.48015110     -0.64262744     -0.91506091      3.98210416
    C     -4.82624205      0.03830841      0.23586784      3.84806583
    C     -5.59382302      0.75312351      1.26178592      3.84088441
    N     -5.00199665      1.51655305      2.17699207      5.29944423
    C     -3.62228310      1.53713615      2.16966918      3.85732365
    C     -2.87064355      0.72037286      1.24717562      3.86712191
    N     -3.49449627     -0.00416187      0.26331922      5.27638602
    C     -2.81415573      2.25873944      3.04703622      4.16511298
    S     -1.13688429      1.92559660      2.74709632      5.93274067
    C     -1.47783383      0.81427091      1.43887519      4.04526190
    C     -7.07550857      0.62712598      1.36575901      3.98096034
    C     -7.72313589     -0.60748071      1.17991638      4.09254625
    C     -9.10643460     -0.70613106      1.31419875      4.07438814
    C     -9.86436882      0.42221515      1.63472286      4.07704155
    C     -9.22978004      1.64877225      1.83876194      4.07736238
    C     -7.84528908      1.74960585      1.71404379      4.08529408
    H     -7.34739474      2.70230465      1.87553698      0.91256948
    H     -9.81534558      2.52721796      2.09835093      0.92105547
    H    -10.94397964      0.34355059      1.73293889      0.92123429
    H     -9.59469423     -1.66651472      1.17034075      0.91997448
    H     -7.13943952     -1.49429436      0.94590589      0.91666577
    H     -4.03986687     -2.24415581     -0.93739113      0.90610244
    H     -5.06637707     -3.40389186     -2.87981795      0.91930073
    H     -7.08041481     -2.44544568     -3.97658414      0.92154404
    H     -8.04302709     -0.31069369     -3.14405995      0.92095787
    H     -7.02428353      0.84498259     -1.21398952      0.91802917
    H     10.68038183     -2.33855740     -0.31645531      0.91485655
    H     -3.13361659      2.93533097      3.82947226      0.87812289
