
                                 *****************
                                 * O   R   C   A *
                                 *****************

           --- An Ab Initio, DFT and Semiempirical electronic structure package ---

                  #######################################################
                  #                        -***-                        #
                  #  Department of molecular theory and spectroscopy    #
                  #              Directorship: Frank Neese              #
                  # Max Planck Institute for Chemical Energy Conversion #
                  #                  D-45470 Muelheim/Ruhr              #
                  #                       Germany                       #
                  #                                                     #
                  #                  All rights reserved                #
                  #                        -***-                        #
                  #######################################################


                         Program Version 4.0.0 -  RELEASE  -


 With contributions from (in alphabetic order):
   Daniel Aravena         : Magnetic Properties
   Michael Atanasov       : Ab Initio Ligand Field Theory
   Ute Becker             : Parallelization
   Martin Brehm           : Molecular dynamics
   Dmytro Bykov           : SCF Hessian
   Vijay G. Chilkuri      : MRCI spin determinant printing
   Dipayan Datta          : RHF DLPNO-CCSD density
   Achintya Kumar Dutta   : EOM-CC, STEOM-CC
   Dmitry Ganyushin       : Spin-Orbit,Spin-Spin,Magnetic field MRCI
   Yang Guo               : DLPNO-NEVPT2, CIM, IAO-localization
   Andreas Hansen         : Spin unrestricted coupled pair/coupled cluster methods
   Lee Huntington         : MR-EOM, pCC
   Robert Izsak           : Overlap fitted RIJCOSX, COSX-SCS-MP3, EOM
   Christian Kollmar      : KDIIS, OOCD, Brueckner-CCSD(T), CCSD density
   Simone Kossmann        : Meta GGA functionals, TD-DFT gradient, OOMP2, MP2 Hessian
   Martin Krupicka        : AUTO-CI
   Dagmar Lenk            : GEPOL surface
   Dimitrios Liakos       : Extrapolation schemes; parallel MDCI
   Dimitrios Manganas     : ROCIS; embedding schemes
   Dimitrios Pantazis     : SARC Basis sets
   Taras Petrenko         : DFT Hessian,TD-DFT gradient, ASA, ECA, R-Raman, ABS, FL, XAS/XES, NRVS
   Peter Pinski           : DLPNO-MP2
   Christoph Reimann      : Effective Core Potentials
   Marius Retegan         : Local ZFS, SOC
   Christoph Riplinger    : Optimizer, TS searches, QM/MM, DLPNO-CCSD(T), (RO)-DLPNO pert. Triples
   Tobias Risthaus        : Range-separated hybrids, TD-DFT gradient, RPA, STAB
   Michael Roemelt        : Restricted open shell CIS
   Masaaki Saitow         : Open-shell DLPNO
   Barbara Sandhoefer     : DKH picture change effects
   Kantharuban Sivalingam : CASSCF convergence, NEVPT2, FIC-MRCI
   Georgi Stoychev        : AutoAux
   Boris Wezisla          : Elementary symmetry handling
   Frank Wennmohs         : Technical directorship


 We gratefully acknowledge several colleagues who have allowed us to
 interface, adapt or use parts of their codes:
   Stefan Grimme, W. Hujo, H. Kruse,             : VdW corrections, initial TS optimization,
                  C. Bannwarth                     DFT functionals, gCP, sTDA/sTD-DF
   Ed Valeev                                     : LibInt (2-el integral package), F12 methods
   Garnet Chan, S. Sharma, J. Yang, R. Olivares  : DMRG
   Ulf Ekstrom                                   : XCFun DFT Library
   Mihaly Kallay                                 : mrcc  (arbitrary order and MRCC methods)
   Jiri Pittner, Ondrej Demel                    : Mk-CCSD
   Frank Weinhold                                : gennbo (NPA and NBO analysis)
   Christopher J. Cramer and Donald G. Truhlar   : smd solvation model


 Your calculation uses the libint2 library for the computation of 2-el integrals
 For citations please refer to: http://libint.valeyev.net

 This ORCA versions uses:
   CBLAS   interface :  Fast vector & matrix operations
   LAPACKE interface :  Fast linear algebra routines
   SCALAPACK package :  Parallel linear algebra routines


Your calculation utilizes the atom-pairwise dispersion correction
with the zero-damping scheme (D30)
Cite in your paper:
S.Grimme, J.Antony, S.Ehrlich and H.Krieg, J.Chem.Phys., 132, (2010), 154104 
   

XCFun DFT library Copyright 2009-2010 Ulf Ekstrom and contributors.
See http://admol.org/xcfun for more information. This is free soft-
ware; see the source code for copying conditions. There is ABSOLUTELY
NO WARRANTY; not even for MERCHANTABILITY or FITNESS FOR A PARTICULAR
PURPOSE. For details see the documentation. Scientific users of this 
library should cite U. Ekstrom, L. Visscher, R. Bast, A. J. Thorvald-
sen and K. Ruud; J.Chem.Theor.Comp. 2010, DOI: 10.1021/ct100117s
XCFun Version 0.99 
Your calculation utilizes the basis: def2-TZVP
   F. Weigend and R. Ahlrichs, Phys. Chem. Chem. Phys. 7, 3297 (2005).

Your calculation utilizes the auxiliary basis: def2/J
   F. Weigend, Phys. Chem. Chem. Phys. 8, 1057 (2006).

================================================================================
                                        WARNINGS
                       Please study these warnings very carefully!
================================================================================

Warning: TCutStore was < 0. Adjusted to Thresh (uncritical)
INFO   : Checking CIS options ...

WARNING: CIS/ROCIS methods need fully converged wavefunctions
  ===> : Setting SCFConvForced true
         You can overwrite this default with %scf ConvForced false 


INFO   : the flag for use of LIBINT has been found!

Your calculation utilizes the atom-pairwise dispersion correction
with the zero-damping scheme (D30)
Cite in your paper:
S.Grimme, J.Antony, S.Ehrlich and H.Krieg, J.Chem.Phys., 132, (2010), 154104 
   

XCFun DFT library Copyright 2009-2010 Ulf Ekstrom and contributors.
See http://admol.org/xcfun for more information. This is free soft-
ware; see the source code for copying conditions. There is ABSOLUTELY
NO WARRANTY; not even for MERCHANTABILITY or FITNESS FOR A PARTICULAR
PURPOSE. For details see the documentation. Scientific users of this 
library should cite U. Ekstrom, L. Visscher, R. Bast, A. J. Thorvald-
sen and K. Ruud; J.Chem.Theor.Comp. 2010, DOI: 10.1021/ct100117s
XCFun Version 0.99 
Your calculation utilizes the basis: def2-TZVP
   F. Weigend and R. Ahlrichs, Phys. Chem. Chem. Phys. 7, 3297 (2005).

Your calculation utilizes the auxiliary basis: def2/J
   F. Weigend, Phys. Chem. Chem. Phys. 8, 1057 (2006).

================================================================================
                                        WARNINGS
                       Please study these warnings very carefully!
================================================================================

INFO   : Checking CIS options ...

INFO   : the flag for use of LIBINT has been found!

================================================================================
                                       INPUT FILE
================================================================================
NAME = total.inp
|  1> # 
|  2> !wB97X-D3 def2-TZVP def2/J RIJCOSX Grid5 FinalGrid6 TightSCF
|  3> %pal 
|  4>  nprocs 24
|  5> end
|  6> %tddft
|  7>   Mode sTDDFT
|  8>   nroots 2
|  9>   Ethresh 10.0
| 10>   maxcore 5000
| 11>   triplets true
| 12> end
| 13> * xyz 0 1 
| 14> C 5.05595372 1.40896929 -2.60991973
| 15> C 4.51681616 0.77237678 -1.49497023
| 16> C 5.38042680 0.12246789 -0.59274121
| 17> C 6.77914084 0.15231381 -0.85422455
| 18> C 7.32443777 0.78703020 -1.98073067
| 19> C 6.44045112 1.41409890 -2.85508519
| 20> C 5.20774616 -0.60354102 0.65610278
| 21> C 6.52019704 -0.95658237 1.09000581
| 22> N 7.44345470 -0.50996469 0.16323064
| 23> C 6.77507496 -1.63174709 2.29269874
| 24> C 5.67959779 -1.94855989 3.09321293
| 25> C 4.37915513 -1.61377856 2.69605852
| 26> C 4.10408269 -0.95945193 1.47970605
| 27> H 3.54784645 -1.89151398 3.34007605
| 28> H 8.44735905 -0.61955049 0.23742793
| 29> H 5.83157276 -2.46477663 4.03673666
| 30> H 3.44323794 0.77745957 -1.33095072
| 31> H 8.39638008 0.79228576 -2.15934576
| 32> H 6.82564743 1.91657310 -3.73844444
| 33> H 4.39351583 1.91107810 -3.30974117
| 34> S -2.23844409 0.08947929 -0.14349910
| 35> C -3.51718120 0.24848676 1.08305002
| 36> N -3.04773220 0.15971016 2.32159545
| 37> N -1.69989950 -0.05506462 2.39452320
| 38> C -1.11296182 -0.11313158 1.20719438
| 39> C 0.30314845 -0.33061463 1.01505813
| 40> N 0.88289763 -0.39848265 -0.17592598
| 41> N 2.23290134 -0.60985080 -0.10898481
| 42> C 2.70484543 -0.69990494 1.12498361
| 43> S 1.43192748 -0.53547959 2.36096984
| 44> C -7.59206532 1.47402636 0.46932508
| 45> C -6.99685252 0.64754839 -0.51847466
| 46> C -5.65530389 0.17281802 -0.35340122
| 47> C -4.92580963 0.58480833 0.81784987
| 48> C -5.56421931 1.37450252 1.77397455
| 49> C -6.88994490 1.81492616 1.60715553
| 50> C -5.12975301 -0.71463892 -1.33661184
| 51> C -5.87055608 -1.07459876 -2.44484358
| 52> C -7.17725222 -0.57805554 -2.64233697
| 53> C -7.72956291 0.26218387 -1.68536757
| 54> O -8.99490934 0.73800934 -1.82924370
| 55> H -7.74966927 -0.86505973 -3.52051546
| 56> H -5.00959613 1.67114127 2.66042621
| 57> H -7.34794812 2.43801029 2.37044658
| 58> H -5.44731770 -1.75549002 -3.17778880
| 59> H -4.14065656 -1.14243528 -1.21072695
| 60> H -9.38867821 0.40674614 -2.64738595
| 61> H 7.78783946 -1.88693417 2.59158797
| 62> H -8.60944026 1.82255757 0.31726379
| 63> *
| 64> $new_job
| 65> # 
| 66> !wB97X-D3 def2-TZVP def2/J RIJCOSX Grid5 FinalGrid6 TightSCF
| 67> %pal 
| 68>  nprocs 24
| 69> end
| 70> %elprop
| 71>    dipole     true
| 72>    quadrupole true
| 73> end
| 74> %tddft
| 75>   Mode sTDDFT
| 76>   nroots 2
| 77>   Ethresh 10.0
| 78>   maxcore 5000
| 79> end
| 80> * xyz 0 1 
| 81> C 5.05595372 1.40896929 -2.60991973
| 82> C 4.51681616 0.77237678 -1.49497023
| 83> C 5.38042680 0.12246789 -0.59274121
| 84> C 6.77914084 0.15231381 -0.85422455
| 85> C 7.32443777 0.78703020 -1.98073067
| 86> C 6.44045112 1.41409890 -2.85508519
| 87> C 5.20774616 -0.60354102 0.65610278
| 88> C 6.52019704 -0.95658237 1.09000581
| 89> N 7.44345470 -0.50996469 0.16323064
| 90> C 6.77507496 -1.63174709 2.29269874
| 91> C 5.67959779 -1.94855989 3.09321293
| 92> C 4.37915513 -1.61377856 2.69605852
| 93> C 4.10408269 -0.95945193 1.47970605
| 94> H 3.54784645 -1.89151398 3.34007605
| 95> H 8.44735905 -0.61955049 0.23742793
| 96> H 5.83157276 -2.46477663 4.03673666
| 97> H 3.44323794 0.77745957 -1.33095072
| 98> H 8.39638008 0.79228576 -2.15934576
| 99> H 6.82564743 1.91657310 -3.73844444
|100> H 4.39351583 1.91107810 -3.30974117
|101> S -2.23844409 0.08947929 -0.14349910
|102> C -3.51718120 0.24848676 1.08305002
|103> N -3.04773220 0.15971016 2.32159545
|104> N -1.69989950 -0.05506462 2.39452320
|105> C -1.11296182 -0.11313158 1.20719438
|106> C 0.30314845 -0.33061463 1.01505813
|107> N 0.88289763 -0.39848265 -0.17592598
|108> N 2.23290134 -0.60985080 -0.10898481
|109> C 2.70484543 -0.69990494 1.12498361
|110> S 1.43192748 -0.53547959 2.36096984
|111> C -7.59206532 1.47402636 0.46932508
|112> C -6.99685252 0.64754839 -0.51847466
|113> C -5.65530389 0.17281802 -0.35340122
|114> C -4.92580963 0.58480833 0.81784987
|115> C -5.56421931 1.37450252 1.77397455
|116> C -6.88994490 1.81492616 1.60715553
|117> C -5.12975301 -0.71463892 -1.33661184
|118> C -5.87055608 -1.07459876 -2.44484358
|119> C -7.17725222 -0.57805554 -2.64233697
|120> C -7.72956291 0.26218387 -1.68536757
|121> O -8.99490934 0.73800934 -1.82924370
|122> H -7.74966927 -0.86505973 -3.52051546
|123> H -5.00959613 1.67114127 2.66042621
|124> H -7.34794812 2.43801029 2.37044658
|125> H -5.44731770 -1.75549002 -3.17778880
|126> H -4.14065656 -1.14243528 -1.21072695
|127> H -9.38867821 0.40674614 -2.64738595
|128> H 7.78783946 -1.88693417 2.59158797
|129> H -8.60944026 1.82255757 0.31726379
|130> *
|131> 
|132>                          ****END OF INPUT****
================================================================================


                 $$$$$$$$$$$$$$$$$$$$$$$$$$$$$$$$$$$$$$$$$$$$$$ 
                 $ THERE ARE  2 JOBS TO BE PROCESSED THIS RUN $
                 $$$$$$$$$$$$$$$$$$$$$$$$$$$$$$$$$$$$$$$$$$$$$$ 




                 $$$$$$$$$$$$$$$$  JOB NUMBER  1 $$$$$$$$$$$$$$


                       ****************************
                       * Single Point Calculation *
                       ****************************

---------------------------------
CARTESIAN COORDINATES (ANGSTROEM)
---------------------------------
  C      5.055954    1.408969   -2.609920
  C      4.516816    0.772377   -1.494970
  C      5.380427    0.122468   -0.592741
  C      6.779141    0.152314   -0.854225
  C      7.324438    0.787030   -1.980731
  C      6.440451    1.414099   -2.855085
  C      5.207746   -0.603541    0.656103
  C      6.520197   -0.956582    1.090006
  N      7.443455   -0.509965    0.163231
  C      6.775075   -1.631747    2.292699
  C      5.679598   -1.948560    3.093213
  C      4.379155   -1.613779    2.696059
  C      4.104083   -0.959452    1.479706
  H      3.547846   -1.891514    3.340076
  H      8.447359   -0.619550    0.237428
  H      5.831573   -2.464777    4.036737
  H      3.443238    0.777460   -1.330951
  H      8.396380    0.792286   -2.159346
  H      6.825647    1.916573   -3.738444
  H      4.393516    1.911078   -3.309741
  S     -2.238444    0.089479   -0.143499
  C     -3.517181    0.248487    1.083050
  N     -3.047732    0.159710    2.321595
  N     -1.699899   -0.055065    2.394523
  C     -1.112962   -0.113132    1.207194
  C      0.303148   -0.330615    1.015058
  N      0.882898   -0.398483   -0.175926
  N      2.232901   -0.609851   -0.108985
  C      2.704845   -0.699905    1.124984
  S      1.431927   -0.535480    2.360970
  C     -7.592065    1.474026    0.469325
  C     -6.996853    0.647548   -0.518475
  C     -5.655304    0.172818   -0.353401
  C     -4.925810    0.584808    0.817850
  C     -5.564219    1.374503    1.773975
  C     -6.889945    1.814926    1.607156
  C     -5.129753   -0.714639   -1.336612
  C     -5.870556   -1.074599   -2.444844
  C     -7.177252   -0.578056   -2.642337
  C     -7.729563    0.262184   -1.685368
  O     -8.994909    0.738009   -1.829244
  H     -7.749669   -0.865060   -3.520515
  H     -5.009596    1.671141    2.660426
  H     -7.347948    2.438010    2.370447
  H     -5.447318   -1.755490   -3.177789
  H     -4.140657   -1.142435   -1.210727
  H     -9.388678    0.406746   -2.647386
  H      7.787839   -1.886934    2.591588
  H     -8.609440    1.822558    0.317264

----------------------------
CARTESIAN COORDINATES (A.U.)
----------------------------
  NO LB      ZA    FRAG     MASS         X           Y           Z
   0 C     6.0000    0    12.011    9.554368    2.662566   -4.932034
   1 C     6.0000    0    12.011    8.535546    1.459581   -2.825084
   2 C     6.0000    0    12.011   10.167533    0.231431   -1.120119
   3 C     6.0000    0    12.011   12.810720    0.287831   -1.614250
   4 C     6.0000    0    12.011   13.841181    1.487272   -3.743039
   5 C     6.0000    0    12.011   12.170689    2.672260   -5.395329
   6 C     6.0000    0    12.011    9.841214   -1.140527    1.239855
   7 C     6.0000    0    12.011   12.321387   -1.807679    2.059812
   8 N     7.0000    0    14.007   14.066091   -0.963694    0.308461
   9 C     6.0000    0    12.011   12.803036   -3.083555    4.332573
  10 C     6.0000    0    12.011   10.732884   -3.682245    5.845325
  11 C     6.0000    0    12.011    8.275404   -3.049600    5.094812
  12 C     6.0000    0    12.011    7.755592   -1.813101    2.796239
  13 H     1.0000    0     1.008    6.704458   -3.574443    6.311829
  14 H     1.0000    0     1.008   15.963195   -1.170781    0.448674
  15 H     1.0000    0     1.008   11.020075   -4.657753    7.628327
  16 H     1.0000    0     1.008    6.506777    1.469186   -2.515132
  17 H     1.0000    0     1.008   15.866859    1.497203   -4.080572
  18 H     1.0000    0     1.008   12.898604    3.621798   -7.064636
  19 H     1.0000    0     1.008    8.302542    3.611414   -6.254504
  20 S    16.0000    0    32.060   -4.230046    0.169091   -0.271174
  21 C     6.0000    0    12.011   -6.646509    0.469572    2.046668
  22 N     7.0000    0    14.007   -5.759379    0.301808    4.387180
  23 N     7.0000    0    14.007   -3.212345   -0.104057    4.524993
  24 C     6.0000    0    12.011   -2.103193   -0.213788    2.281267
  25 C     6.0000    0    12.011    0.572868   -0.624771    1.918182
  26 N     7.0000    0    14.007    1.668435   -0.753023   -0.332452
  27 N     7.0000    0    14.007    4.219572   -1.152451   -0.205951
  28 C     6.0000    0    12.011    5.111417   -1.322629    2.125911
  29 S    16.0000    0    32.060    2.705951   -1.011910    4.461586
  30 C     6.0000    0    12.011  -14.346924    2.785506    0.886896
  31 C     6.0000    0    12.011  -13.222135    1.223689   -0.979775
  32 C     6.0000    0    12.011  -10.686976    0.326579   -0.667832
  33 C     6.0000    0    12.011   -9.308431    1.105128    1.545512
  34 C     6.0000    0    12.011  -10.514851    2.597433    3.352326
  35 C     6.0000    0    12.011  -13.020109    3.429713    3.037084
  36 C     6.0000    0    12.011   -9.693828   -1.350472   -2.525830
  37 C     6.0000    0    12.011  -11.093743   -2.030697   -4.620085
  38 C     6.0000    0    12.011  -13.563041   -1.092367   -4.993293
  39 C     6.0000    0    12.011  -14.606757    0.495456   -3.184883
  40 O     8.0000    0    15.999  -16.997915    1.394636   -3.456770
  41 H     1.0000    0     1.008  -14.644753   -1.634726   -6.652810
  42 H     1.0000    0     1.008   -9.466765    3.157999    5.027477
  43 H     1.0000    0     1.008  -13.885610    4.607172    4.479495
  44 H     1.0000    0     1.008  -10.293939   -3.317395   -6.005151
  45 H     1.0000    0     1.008   -7.824707   -2.158890   -2.287942
  46 H     1.0000    0     1.008  -17.742031    0.768639   -5.002834
  47 H     1.0000    0     1.008   14.716884   -3.565789    4.897392
  48 H     1.0000    0     1.008  -16.269484    3.444135    0.599542

--------------------------------
INTERNAL COORDINATES (ANGSTROEM)
--------------------------------
 C      0   0   0     0.000000000000     0.00000000     0.00000000
 C      1   0   0     1.392491192052     0.00000000     0.00000000
 C      2   1   0     1.407914098002   119.11998975     0.00000000
 C      3   2   1     1.423258684053   118.38573768     0.48238158
 C      4   3   2     1.403292441368   122.60550961   359.15403561
 C      5   4   3     1.392531284583   117.45456202     0.54107434
 C      3   2   1     1.454826055647   135.04386485   178.50280469
 C      7   3   2     1.426687543461   105.98407717   182.61396634
 N      8   7   3     1.382311207567   109.30336084   358.72612086
 C      8   7   3     1.402597746009   123.16634516   177.69610693
 C     10   8   7     1.393292341408   117.33809849   359.22443188
 C     11  10   8     1.400343270861   120.85382801     0.65298666
 C     12  11  10     1.408304483146   122.50820757     0.58999652
 H     12  11  10     1.087644088805   118.73851108   179.04473971
 H      9   8   7     1.012589862360   125.31603284   179.09076999
 H     11  10   8     1.086192037918   119.81095694   180.44910943
 H      2   1   3     1.086047157758   120.10017041   180.22464133
 H      5   4   3     1.086734230277   121.15957111   180.22946267
 H      6   5   4     1.086821090826   119.57383522   179.97963318
 H      1   2   3     1.086594341542   119.39938649   179.93709637
 S     17   2   1     5.845072189934   172.31438063   145.90605355
 C     21  17   2     1.779009476023   145.91884188    85.62086515
 N     22  21  17     1.327500821274   112.52520215   333.59813834
 N     23  22  21     1.366784419736   114.14332525   358.97262521
 C     24  23  22     1.325751612803   113.30829253     0.99557049
 C     25  24  23     1.445539177055   124.00988901   179.98328439
 N     26  25  24     1.326332661937   123.72859285   179.43381466
 N     27  26  25     1.368089043918   113.28450280   179.96747269
 C     28  27  26     1.324205057298   114.06605949   359.69252144
 S     26  25  24     1.768499386915   122.78906589   359.54730309
 C     22  21  17     4.299219255234   127.46969698   142.94079262
 C     31  22  21     1.418834887689    62.33621678    38.36484889
 C     32  31  22     1.432609818286   120.37447159     1.84746728
 C     33  32  31     1.440044098885   118.24815869   358.44485592
 C     34  33  32     1.394760996351   119.18750569     2.90684359
 C     31  22  21     1.379798496436    58.02189696   215.65306982
 C     33  32  31     1.424951462719   118.18051109   176.54445535
 C     37  33  32     1.380774371314   121.21727381     2.22784040
 C     38  37  33     1.411741339875   121.14329106   359.86986489
 C     39  38  37     1.388106551005   118.99553346   358.54357978
 O     40  39  38     1.359489538981   120.61291976   181.30922936
 H     39  38  37     1.086844121531   120.50701213   179.75150593
 H     35  34  33     1.086921324343   118.68788247   179.29424070
 H     36  31  22     1.086560633190   120.42961357   177.94726070
 H     38  37  33     1.086256106897   119.73098729   180.19948274
 H     37  33  32     1.084973971375   120.11485333   183.84629895
 H     41  40  39     0.966512271981   110.41539161     0.00000000
 H     10   8   7     1.086345778318   121.22530976   179.87838202
 H     31  22  21     1.086116204096   177.84445431   274.72303542

---------------------------
INTERNAL COORDINATES (A.U.)
---------------------------
 C      0   0   0     0.000000000000     0.00000000     0.00000000
 C      1   0   0     2.631426996875     0.00000000     0.00000000
 C      2   1   0     2.660572065310   119.11998975     0.00000000
 C      3   2   1     2.689569130585   118.38573768     0.48238158
 C      4   3   2     2.651838399987   122.60550961   359.15403561
 C      5   4   3     2.631502760779   117.45456202     0.54107434
 C      3   2   1     2.749222817666   135.04386485   178.50280469
 C      7   3   2     2.696048735817   105.98407717   182.61396634
 N      8   7   3     2.612189614152   109.30336084   358.72612086
 C      8   7   3     2.650525616011   123.16634516   177.69610693
 C     10   8   7     2.632940949751   117.33809849   359.22443188
 C     11  10   8     2.646265275408   120.85382801     0.65298666
 C     12  11  10     2.661309786320   122.50820757     0.58999652
 H     12  11  10     2.055349459020   118.73851108   179.04473971
 H      9   8   7     1.913517525845   125.31603284   179.09076999
 H     11  10   8     2.052605480510   119.81095694   180.44910943
 H      2   1   3     2.052331696685   120.10017041   180.22464133
 H      5   4   3     2.053630075580   121.15957111   180.22946267
 H      6   5   4     2.053794218230   119.57383522   179.97963318
 H      1   2   3     2.053365724183   119.39938649   179.93709637
 S     17   2   1    11.045585671974   172.31438063   145.90605355
 C     21  17   2     3.361840699334   145.91884188    85.62086515
 N     22  21  17     2.508612994763   112.52520215   333.59813834
 N     23  22  21     2.582848237412   114.14332525   358.97262521
 C     24  23  22     2.505307469802   113.30829253     0.99557049
 C     25  24  23     2.731673160488   124.00988901   179.98328439
 N     26  25  24     2.506405493536   123.72859285   179.43381466
 N     27  26  25     2.585313619824   113.28450280   179.96747269
 C     28  27  26     2.502384903447   114.06605949   359.69252144
 S     26  25  24     3.341979509277   122.78906589   359.54730309
 C     22  21  17     8.124346982073   127.46969698   142.94079262
 C     31  22  21     2.681209366985    62.33621678    38.36484889
 C     32  31  22     2.707240213327   120.37447159     1.84746728
 C     33  32  31     2.721288967662   118.24815869   358.44485592
 C     34  33  32     2.635716305379   119.18750569     2.90684359
 C     31  22  21     2.607441278261    58.02189696   215.65306982
 C     33  32  31     2.692768018669   118.18051109   176.54445535
 C     37  33  32     2.609285414521   121.21727381     2.22784040
 C     38  37  33     2.667804504299   121.14329106   359.86986489
 C     39  38  37     2.623141226101   118.99553346   358.54357978
 O     40  39  38     2.569062910605   120.61291976   181.30922936
 H     39  38  37     2.053837739956   120.50701213   179.75150593
 H     35  34  33     2.053983632127   118.68788247   179.29424070
 H     36  31  22     2.053302024629   120.42961357   177.94726070
 H     38  37  33     2.052726553334   119.73098729   180.19948274
 H     37  33  32     2.050303668332   120.11485333   183.84629895
 H     41  40  39     1.826443499119   110.41539161     0.00000000
 H     10   8   7     2.052896007762   121.22530976   179.87838202
 H     31  22  21     2.052462175356   177.84445431   274.72303542

---------------------
BASIS SET INFORMATION
---------------------
There are 5 groups of distinct atoms

 Group   1 Type C   : 11s6p2d1f contracted to 5s3p2d1f pattern {62111/411/11/1}
 Group   2 Type N   : 11s6p2d1f contracted to 5s3p2d1f pattern {62111/411/11/1}
 Group   3 Type H   : 5s1p contracted to 3s1p pattern {311/1}
 Group   4 Type S   : 14s9p3d1f contracted to 5s5p2d1f pattern {73211/51111/21/1}
 Group   5 Type O   : 11s6p2d1f contracted to 5s3p2d1f pattern {62111/411/11/1}

Atom   0C    basis set group =>   1
Atom   1C    basis set group =>   1
Atom   2C    basis set group =>   1
Atom   3C    basis set group =>   1
Atom   4C    basis set group =>   1
Atom   5C    basis set group =>   1
Atom   6C    basis set group =>   1
Atom   7C    basis set group =>   1
Atom   8N    basis set group =>   2
Atom   9C    basis set group =>   1
Atom  10C    basis set group =>   1
Atom  11C    basis set group =>   1
Atom  12C    basis set group =>   1
Atom  13H    basis set group =>   3
Atom  14H    basis set group =>   3
Atom  15H    basis set group =>   3
Atom  16H    basis set group =>   3
Atom  17H    basis set group =>   3
Atom  18H    basis set group =>   3
Atom  19H    basis set group =>   3
Atom  20S    basis set group =>   4
Atom  21C    basis set group =>   1
Atom  22N    basis set group =>   2
Atom  23N    basis set group =>   2
Atom  24C    basis set group =>   1
Atom  25C    basis set group =>   1
Atom  26N    basis set group =>   2
Atom  27N    basis set group =>   2
Atom  28C    basis set group =>   1
Atom  29S    basis set group =>   4
Atom  30C    basis set group =>   1
Atom  31C    basis set group =>   1
Atom  32C    basis set group =>   1
Atom  33C    basis set group =>   1
Atom  34C    basis set group =>   1
Atom  35C    basis set group =>   1
Atom  36C    basis set group =>   1
Atom  37C    basis set group =>   1
Atom  38C    basis set group =>   1
Atom  39C    basis set group =>   1
Atom  40O    basis set group =>   5
Atom  41H    basis set group =>   3
Atom  42H    basis set group =>   3
Atom  43H    basis set group =>   3
Atom  44H    basis set group =>   3
Atom  45H    basis set group =>   3
Atom  46H    basis set group =>   3
Atom  47H    basis set group =>   3
Atom  48H    basis set group =>   3
-------------------------------
AUXILIARY BASIS SET INFORMATION
-------------------------------
There are 5 groups of distinct atoms

 Group   1 Type C   : 12s5p4d2f1g contracted to 6s4p3d1f1g pattern {711111/2111/211/2/1}
 Group   2 Type N   : 12s5p4d2f1g contracted to 6s4p3d1f1g pattern {711111/2111/211/2/1}
 Group   3 Type H   : 5s2p1d contracted to 3s1p1d pattern {311/2/1}
 Group   4 Type S   : 14s5p5d2f1g contracted to 8s4p3d1f1g pattern {71111111/2111/311/2/1}
 Group   5 Type O   : 12s5p4d2f1g contracted to 6s4p3d1f1g pattern {711111/2111/211/2/1}

Atom   0C    basis set group =>   1
Atom   1C    basis set group =>   1
Atom   2C    basis set group =>   1
Atom   3C    basis set group =>   1
Atom   4C    basis set group =>   1
Atom   5C    basis set group =>   1
Atom   6C    basis set group =>   1
Atom   7C    basis set group =>   1
Atom   8N    basis set group =>   2
Atom   9C    basis set group =>   1
Atom  10C    basis set group =>   1
Atom  11C    basis set group =>   1
Atom  12C    basis set group =>   1
Atom  13H    basis set group =>   3
Atom  14H    basis set group =>   3
Atom  15H    basis set group =>   3
Atom  16H    basis set group =>   3
Atom  17H    basis set group =>   3
Atom  18H    basis set group =>   3
Atom  19H    basis set group =>   3
Atom  20S    basis set group =>   4
Atom  21C    basis set group =>   1
Atom  22N    basis set group =>   2
Atom  23N    basis set group =>   2
Atom  24C    basis set group =>   1
Atom  25C    basis set group =>   1
Atom  26N    basis set group =>   2
Atom  27N    basis set group =>   2
Atom  28C    basis set group =>   1
Atom  29S    basis set group =>   4
Atom  30C    basis set group =>   1
Atom  31C    basis set group =>   1
Atom  32C    basis set group =>   1
Atom  33C    basis set group =>   1
Atom  34C    basis set group =>   1
Atom  35C    basis set group =>   1
Atom  36C    basis set group =>   1
Atom  37C    basis set group =>   1
Atom  38C    basis set group =>   1
Atom  39C    basis set group =>   1
Atom  40O    basis set group =>   5
Atom  41H    basis set group =>   3
Atom  42H    basis set group =>   3
Atom  43H    basis set group =>   3
Atom  44H    basis set group =>   3
Atom  45H    basis set group =>   3
Atom  46H    basis set group =>   3
Atom  47H    basis set group =>   3
Atom  48H    basis set group =>   3
-------------------------
ECP PARAMETER INFORMATION
-------------------------



--------------------------------------------------------------------------
[[63513,1],0]: A high-performance Open MPI point-to-point messaging module
was unable to find any relevant network interfaces:

Module: OpenFabrics (openib)
  Host: cx1-105-9-2

Another transport will be used instead, although this may result in
lower performance.
--------------------------------------------------------------------------


           ************************************************************
           *        Program running with 24 parallel MPI-processes    *
           *              working on a common directory               *
           ************************************************************
------------------------------------------------------------------------------
                           ORCA GTO INTEGRAL CALCULATION
                           -- RI-GTO INTEGRALS CHOSEN --
------------------------------------------------------------------------------

                         BASIS SET STATISTICS AND STARTUP INFO

Gaussian basis set:
 # of primitive gaussian shells          ...  784
 # of primitive gaussian functions       ... 1718
 # of contracted shells                  ...  438
 # of contracted basis functions         ... 1156
 Highest angular momentum                ...    3
 Maximum contraction depth               ...    7
Auxiliary gaussian basis set:
 # of primitive gaussian shells          ...  942
 # of primitive gaussian functions       ... 2634
 # of contracted shells                  ...  589
 # of contracted aux-basis functions     ... 1835
 Highest angular momentum                ...    4
 Maximum contraction depth               ...    7
Ratio of auxiliary to basis functions    ...  1.59
Integral package used                  ... LIBINT
 One Electron integrals                  
   ECP integrals                         ... done
 Ordering auxiliary basis shells         ... done
 Integral threshhold             Thresh  ...  2.500e-11
 Primitive cut-off               TCut    ...  2.500e-12
 Pre-screening matrix                    ... done
 Shell pair data                         ... 
 Ordering of the shell pairs             ... done (   0.013 sec) 46499 of 96141 pairs
 Determination of significant pairs      ... done (   0.000 sec)
 Creation of shell pair data             ... done (   0.011 sec)
 Storage of shell pair data              ... done (   0.119 sec)
 Shell pair data done in (   0.144 sec)
 Computing two index integrals           ... done
 Cholesky decomposition of the V-matrix  ... done


Timings:
 Total evaluation time                   ...   5.829 sec (  0.097 min)
 One electron matrix time                ...   1.685 sec (  0.028 min) = 28.9%
 Schwartz matrix evaluation time         ...   2.665 sec (  0.044 min) = 45.7%
 Two index repulsion integral time       ...   0.679 sec (  0.011 min) = 11.7%
 Cholesky decomposition of V             ...   0.619 sec (  0.010 min) = 10.6%
 Three index repulsion integral time     ...   0.000 sec (  0.000 min) =  0.0%

--------------------------------------------------------------------------
[[63574,1],6]: A high-performance Open MPI point-to-point messaging module
was unable to find any relevant network interfaces:

Module: OpenFabrics (openib)
  Host: cx1-105-9-2

Another transport will be used instead, although this may result in
lower performance.
--------------------------------------------------------------------------


           ************************************************************
           *        Program running with 24 parallel MPI-processes    *
           *              working on a common directory               *
           ************************************************************
-------------------------------------------------------------------------------
                                 ORCA SCF
-------------------------------------------------------------------------------

------------
SCF SETTINGS
------------
Hamiltonian:
 Density Functional     Method          .... DFT(GTOs)
 Exchange Functional    Exchange        .... WB97X-D3
 Correlation Functional Correlation     .... WB97X-D3
 Gradients option       PostSCFGGA      .... off
 Hybrid DFT is turned on
   Fraction HF Exchange ScalHFX         ....  0.195728
   Scaling of DF-GGA-X  ScalDFX         ....  0.000000
   Scaling of DF-GGA-C  ScalDFC         ....  1.000000
   Scaling of DF-LDA-C  ScalLDAC        ....  1.000000
   Perturbative correction              ....  0.000000
 Long-range corrected/Screened/Range-Separated Hybrid DFT is turned on
   Amount of maximum screened exact exchange              ....  0.804272
   Range separation parameter mu (erf(mu*r12)/r12)        ....  0.250000
 RI-approximation to the Coulomb term is turned on
   Number of auxiliary basis functions  .... 1835
   RIJ-COSX (HFX calculated with COS-X)).... on


General Settings:
 Integral files         IntName         .... total
 Hartree-Fock type      HFTyp           .... RHF
 Total Charge           Charge          ....    0
 Multiplicity           Mult            ....    1
 Number of Electrons    NEL             ....  246
 Basis Dimension        Dim             .... 1156
 Nuclear Repulsion      ENuc            ....   3312.6304260285 Eh

Convergence Acceleration:
 DIIS                   CNVDIIS         .... on
   Start iteration      DIISMaxIt       ....    12
   Startup error        DIISStart       ....  0.200000
   # of expansion vecs  DIISMaxEq       ....     5
   Bias factor          DIISBfac        ....   1.050
   Max. coefficient     DIISMaxC        ....  10.000
 Newton-Raphson         CNVNR           .... off
 SOSCF                  CNVSOSCF        .... on
   Start iteration      SOSCFMaxIt      ....   150
   Startup grad/error   SOSCFStart      ....  0.003300
 Level Shifting         CNVShift        .... on
   Level shift para.    LevelShift      ....    0.2500
   Turn off err/grad.   ShiftErr        ....    0.0010
 Zerner damping         CNVZerner       .... off
 Static damping         CNVDamp         .... on
   Fraction old density DampFac         ....    0.7000
   Max. Damping (<1)    DampMax         ....    0.9800
   Min. Damping (>=0)   DampMin         ....    0.0000
   Turn off err/grad.   DampErr         ....    0.1000
 Fernandez-Rico         CNVRico         .... off

SCF Procedure:
 Maximum # iterations   MaxIter         ....   125
 SCF integral mode      SCFMode         .... Direct
   Integral package                     .... LIBINT
 Reset frequeny         DirectResetFreq ....    20
 Integral Threshold     Thresh          ....  2.500e-11 Eh
 Primitive CutOff       TCut            ....  2.500e-12 Eh

Convergence Tolerance:
 Convergence Check Mode ConvCheckMode   .... Total+1el-Energy
 Convergence forced     ConvForced      .... 1
 Energy Change          TolE            ....  1.000e-08 Eh
 1-El. energy change                    ....  1.000e-05 Eh
 Orbital Gradient       TolG            ....  1.000e-05
 Orbital Rotation angle TolX            ....  1.000e-05
 DIIS Error             TolErr          ....  5.000e-07


Diagonalization of the overlap matrix:
Smallest eigenvalue                        ... 5.486e-06
Time for diagonalization                   ...    0.443 sec
Threshold for overlap eigenvalues          ... 1.000e-08
Number of eigenvalues below threshold      ... 0
Time for construction of square roots      ...    0.397 sec
Total time needed                          ...    0.847 sec

-------------------
DFT GRID GENERATION
-------------------

General Integration Accuracy     IntAcc      ...  5.010
Radial Grid Type                 RadialGrid  ... Gauss-Chebyshev
Angular Grid (max. acc.)         AngularGrid ... Lebedev-434
Angular grid pruning method      GridPruning ... 3 (G Style)
Weight generation scheme         WeightScheme... Becke
Basis function cutoff            BFCut       ...    1.0000e-11
Integration weight cutoff        WCut        ...    1.0000e-14
Grids for H and He will be reduced by one unit

# of grid points (after initial pruning)     ... 465800 (   0.0 sec)
# of grid points (after weights+screening)   ... 409798 (   1.5 sec)
nearest neighbour list constructed           ...    0.0 sec
Grid point re-assignment to atoms done       ...    0.2 sec
Grid point division into batches done        ...    4.6 sec
Reduced shell lists constructed in    5.6 sec

Total number of grid points                  ...   409798
Total number of batches                      ...     6421
Average number of points per batch           ...       63
Average number of grid points per atom       ...     8363
Average number of shells per batch           ...   131.70 (30.07%)
Average number of basis functions per batch  ...   345.44 (29.88%)
Average number of large shells per batch     ...    91.20 (69.25%)
Average number of large basis fcns per batch ...   237.25 (68.68%)
Maximum spatial batch extension              ...  15.54, 15.53, 16.87 au
Average spatial batch extension              ...   0.06,  0.07,  0.06 au

Time for grid setup =    8.310 sec

------------------------------
INITIAL GUESS: MODEL POTENTIAL
------------------------------
Loading Hartree-Fock densities                     ... done
Calculating cut-offs                               ... done
Setting up the integral package                    ... done
Initializing the effective Hamiltonian             ... done
Starting the Coulomb interaction                   ... done (   0.6 sec)
Reading the grid                                   ... done
Mapping shells                                     ... done
Starting the XC term evaluation                    ... done (   2.2 sec)
  promolecular density results
     # of electrons  =    245.992617075
     EX              =   -228.053333262
     EC              =     -8.502203229
     EX+EC           =   -236.555536491
Transforming the Hamiltonian                       ... done (   0.2 sec)
Diagonalizing the Hamiltonian                      ... done (   0.4 sec)
Back transforming the eigenvectors                 ... done (   0.1 sec)
Now organizing SCF variables                       ... done
                      ------------------
                      INITIAL GUESS DONE (  12.2 sec)
                      ------------------
--------------------
COSX GRID GENERATION
--------------------

General Integration Accuracy     IntAcc      ...  3.340
Radial Grid Type                 RadialGrid  ... Gauss-Chebyshev
Angular Grid (max. acc.)         AngularGrid ... Lebedev-50
Angular grid pruning method      GridPruning ... 3 (G Style)
Weight generation scheme         WeightScheme... Becke
Basis function cutoff            BFCut       ...    1.0000e-11
Integration weight cutoff        WCut        ...    1.0000e-14
Grids for H and He will be reduced by one unit

# of grid points (after initial pruning)     ...  24702 (   0.0 sec)
# of grid points (after weights+screening)   ...  22586 (   0.1 sec)
nearest neighbour list constructed           ...    0.0 sec
Grid point re-assignment to atoms done       ...    0.0 sec
Grid point division into batches done        ...    0.0 sec
Reduced shell lists constructed in    0.1 sec

Total number of grid points                  ...    22586
Total number of batches                      ...      374
Average number of points per batch           ...       60
Average number of grid points per atom       ...      461
Average number of shells per batch           ...   144.47 (32.98%)
Average number of basis functions per batch  ...   384.94 (33.30%)
Average number of large shells per batch     ...   102.82 (71.17%)
Average number of large basis fcns per batch ...   273.29 (71.00%)
Maximum spatial batch extension              ...   9.59, 23.24, 16.73 au
Average spatial batch extension              ...   0.13,  0.25,  0.20 au

Overlap Fitting                  UseSFitting ... on
Constructing numerical overlap ... done (      0.1 sec)
Inverting numerical overlap    ... done (      0.2 sec)
Obtaining analytic overlap     ... done (      0.0 sec)
Final contraction and storage  ... done (      0.5 sec)


General Integration Accuracy     IntAcc      ...  3.670
Radial Grid Type                 RadialGrid  ... Gauss-Chebyshev
Angular Grid (max. acc.)         AngularGrid ... Lebedev-50
Angular grid pruning method      GridPruning ... 3 (G Style)
Weight generation scheme         WeightScheme... Becke
Basis function cutoff            BFCut       ...    1.0000e-11
Integration weight cutoff        WCut        ...    1.0000e-14
Grids for H and He will be reduced by one unit

# of grid points (after initial pruning)     ...  30896 (   0.0 sec)
# of grid points (after weights+screening)   ...  28188 (   0.1 sec)
nearest neighbour list constructed           ...    0.0 sec
Grid point re-assignment to atoms done       ...    0.0 sec
Grid point division into batches done        ...    0.0 sec
Reduced shell lists constructed in    0.1 sec

Total number of grid points                  ...    28188
Total number of batches                      ...      462
Average number of points per batch           ...       61
Average number of grid points per atom       ...      575
Average number of shells per batch           ...   142.38 (32.51%)
Average number of basis functions per batch  ...   378.95 (32.78%)
Average number of large shells per batch     ...   101.62 (71.37%)
Average number of large basis fcns per batch ...   268.10 (70.75%)
Maximum spatial batch extension              ...  10.32, 14.13, 11.75 au
Average spatial batch extension              ...   0.11,  0.19,  0.16 au

Overlap Fitting                  UseSFitting ... on
Constructing numerical overlap ... done (      0.1 sec)
Inverting numerical overlap    ... done (      0.2 sec)
Obtaining analytic overlap     ... done (      0.0 sec)
Final contraction and storage  ... done (      0.5 sec)


General Integration Accuracy     IntAcc      ...  4.010
Radial Grid Type                 RadialGrid  ... Gauss-Chebyshev
Angular Grid (max. acc.)         AngularGrid ... Lebedev-110
Angular grid pruning method      GridPruning ... 3 (G Style)
Weight generation scheme         WeightScheme... Becke
Basis function cutoff            BFCut       ...    1.0000e-11
Integration weight cutoff        WCut        ...    1.0000e-14
Grids for H and He will be reduced by one unit

# of grid points (after initial pruning)     ...  60214 (   0.0 sec)
# of grid points (after weights+screening)   ...  54438 (   0.2 sec)
nearest neighbour list constructed           ...    0.0 sec
Grid point re-assignment to atoms done       ...    0.0 sec
Grid point division into batches done        ...    0.1 sec
Reduced shell lists constructed in    0.2 sec

Total number of grid points                  ...    54438
Total number of batches                      ...      877
Average number of points per batch           ...       62
Average number of grid points per atom       ...     1111
Average number of shells per batch           ...   142.26 (32.48%)
Average number of basis functions per batch  ...   378.32 (32.73%)
Average number of large shells per batch     ...   101.63 (71.44%)
Average number of large basis fcns per batch ...   268.16 (70.88%)
Maximum spatial batch extension              ...  10.37, 15.74, 10.31 au
Average spatial batch extension              ...   0.11,  0.17,  0.14 au

Overlap Fitting                  UseSFitting ... on
Constructing numerical overlap ... done (      0.2 sec)
Inverting numerical overlap    ... done (      0.2 sec)
Obtaining analytic overlap     ... done (      0.0 sec)
Final contraction and storage  ... done (      0.5 sec)

Time for X-Grid setup             =    3.984 sec
--------------
SCF ITERATIONS
--------------
ITER       Energy         Delta-E        Max-DP      RMS-DP      [F,P]     Damp
               ***  Starting incremental Fock matrix formation  ***
  0  -2144.5479087595   0.000000000000 0.06831484  0.00060488  0.2025182 0.7000
  1  -2144.8260585119  -0.278149752408 0.05700765  0.00049854  0.1072229 0.7000
                               ***Turning on DIIS***
  2  -2144.9645560558  -0.138497543917 0.09111734  0.00105969  0.0552939 0.0000
  3  -2145.1911540059  -0.226597950124 0.05123041  0.00033751  0.0422611 0.0000
  4  -2145.2280266898  -0.036872683844 0.01339905  0.00011456  0.0090557 0.0000
  5  -2145.2296672556  -0.001640565794 0.00712095  0.00005089  0.0047561 0.0000
                      *** Initiating the SOSCF procedure ***
                           *** Shutting down DIIS ***
                      *** Re-Reading the Fockian *** 
                      *** Removing any level shift *** 
ITER      Energy       Delta-E        Grad      Rot      Max-DP    RMS-DP
  6  -2145.23010329  -0.0004360359  0.002692  0.002692  0.002463  0.000030
               *** Restarting incremental Fock matrix formation ***
  7  -2145.23026000  -0.0001567040  0.001634  0.004550  0.011350  0.000104
  8  -2145.23032202  -0.0000620251  0.000585  0.004611  0.006321  0.000062
  9  -2145.23033700  -0.0000149778  0.000223  0.000797  0.005472  0.000051
 10  -2145.23034410  -0.0000071050  0.000068  0.000206  0.000647  0.000007
 11  -2145.23034429  -0.0000001895  0.000051  0.000099  0.000577  0.000005
 12  -2145.23034462  -0.0000003252  0.000010  0.000040  0.000209  0.000002
 13  -2145.23034462  -0.0000000014  0.000007  0.000014  0.000166  0.000001
                  ***Gradient check signals convergence***
              ***Rediagonalizing the Fockian in SOSCF/NRSCF***

               *****************************************************
               *                     SUCCESS                       *
               *           SCF CONVERGED AFTER  14 CYCLES          *
               *****************************************************

Old exchange energy                            =    -71.657575058 Eh
New exchange energy                            =    -71.657959062 Eh
Exchange energy change after final integration =     -0.000384003 Eh
Total energy after final integration           =  -2145.230728668 Eh
Final COS-X integration done in                =    49.441 sec

----------------
TOTAL SCF ENERGY
----------------

Total Energy       :        -2145.23072867 Eh          -58374.69584 eV

Components:
Nuclear Repulsion  :         3312.63042603 Eh           90141.25659 eV
Electronic Energy  :        -5457.86115470 Eh         -148515.95242 eV
One Electron Energy:        -9518.77479827 Eh         -259019.03053 eV
Two Electron Energy:         4060.91364357 Eh          110503.07811 eV

Virial components:
Potential Energy   :        -4281.80941459 Eh         -116513.95763 eV
Kinetic Energy     :         2136.57868592 Eh           58139.26179 eV
Virial Ratio       :            2.00404948


DFT components:
N(Alpha)           :      122.999978528263 electrons
N(Beta)            :      122.999978528263 electrons
N(Total)           :      245.999957056525 electrons
E(XC)              :     -169.250258957142 Eh       

---------------
SCF CONVERGENCE
---------------

  Last Energy change         ...   -4.5306e-08  Tolerance :   1.0000e-08
  Last MAX-Density change    ...    1.4783e-13  Tolerance :   1.0000e-07
  Last RMS-Density change    ...    3.6505e-16  Tolerance :   5.0000e-09
  Last Orbital Gradient      ...    1.9502e-06  Tolerance :   1.0000e-05
  Last Orbital Rotation      ...    7.8765e-06  Tolerance :   1.0000e-05

             **** THE GBW FILE WAS UPDATED (total.gbw) ****
             **** DENSITY FILE WAS UPDATED (total.scfp.tmp) ****
             **** ENERGY FILE WAS UPDATED (total.en.tmp) ****
----------------
ORBITAL ENERGIES
----------------

  NO   OCC          E(Eh)            E(eV) 
   0   2.0000     -89.007627     -2422.0207 
   1   2.0000     -89.006448     -2421.9886 
   2   2.0000     -19.279481      -524.6213 
   3   2.0000     -14.471745      -393.7962 
   4   2.0000     -14.471376      -393.7862 
   5   2.0000     -14.470737      -393.7688 
   6   2.0000     -14.463274      -393.5657 
   7   2.0000     -14.462727      -393.5508 
   8   2.0000     -10.378030      -282.4005 
   9   2.0000     -10.376607      -282.3618 
  10   2.0000     -10.373872      -282.2874 
  11   2.0000     -10.373753      -282.2842 
  12   2.0000     -10.363572      -282.0071 
  13   2.0000     -10.334766      -281.2233 
  14   2.0000     -10.326067      -280.9866 
  15   2.0000     -10.320632      -280.8387 
  16   2.0000     -10.318260      -280.7741 
  17   2.0000     -10.316868      -280.7362 
  18   2.0000     -10.307154      -280.4719 
  19   2.0000     -10.305029      -280.4141 
  20   2.0000     -10.299890      -280.2743 
  21   2.0000     -10.299370      -280.2601 
  22   2.0000     -10.298756      -280.2434 
  23   2.0000     -10.298653      -280.2406 
  24   2.0000     -10.296004      -280.1685 
  25   2.0000     -10.294767      -280.1348 
  26   2.0000     -10.292798      -280.0813 
  27   2.0000     -10.292094      -280.0621 
  28   2.0000     -10.288957      -279.9767 
  29   2.0000     -10.287201      -279.9290 
  30   2.0000     -10.284456      -279.8543 
  31   2.0000     -10.283499      -279.8282 
  32   2.0000     -10.277419      -279.6628 
  33   2.0000     -10.270832      -279.4835 
  34   2.0000      -8.103803      -220.5157 
  35   2.0000      -8.102696      -220.4856 
  36   2.0000      -6.056907      -164.8168 
  37   2.0000      -6.055788      -164.7864 
  38   2.0000      -6.052947      -164.7091 
  39   2.0000      -6.051873      -164.6798 
  40   2.0000      -6.050900      -164.6534 
  41   2.0000      -6.049785      -164.6230 
  42   2.0000      -1.197361       -32.5818 
  43   2.0000      -1.155059       -31.4307 
  44   2.0000      -1.146981       -31.2109 
  45   2.0000      -1.107955       -30.1490 
  46   2.0000      -1.010596       -27.4997 
  47   2.0000      -0.993249       -27.0277 
  48   2.0000      -0.978482       -26.6259 
  49   2.0000      -0.964412       -26.2430 
  50   2.0000      -0.957094       -26.0439 
  51   2.0000      -0.943728       -25.6801 
  52   2.0000      -0.934161       -25.4198 
  53   2.0000      -0.914248       -24.8780 
  54   2.0000      -0.901646       -24.5350 
  55   2.0000      -0.891760       -24.2660 
  56   2.0000      -0.874917       -23.8077 
  57   2.0000      -0.873721       -23.7751 
  58   2.0000      -0.846889       -23.0450 
  59   2.0000      -0.845905       -23.0183 
  60   2.0000      -0.841213       -22.8906 
  61   2.0000      -0.784958       -21.3598 
  62   2.0000      -0.771473       -20.9928 
  63   2.0000      -0.760732       -20.7006 
  64   2.0000      -0.751622       -20.4527 
  65   2.0000      -0.735291       -20.0083 
  66   2.0000      -0.727431       -19.7944 
  67   2.0000      -0.723624       -19.6908 
  68   2.0000      -0.713704       -19.4209 
  69   2.0000      -0.698817       -19.0158 
  70   2.0000      -0.673388       -18.3238 
  71   2.0000      -0.661103       -17.9895 
  72   2.0000      -0.658871       -17.9288 
  73   2.0000      -0.643152       -17.5011 
  74   2.0000      -0.629797       -17.1377 
  75   2.0000      -0.624186       -16.9850 
  76   2.0000      -0.619013       -16.8442 
  77   2.0000      -0.616239       -16.7687 
  78   2.0000      -0.601109       -16.3570 
  79   2.0000      -0.580358       -15.7924 
  80   2.0000      -0.574227       -15.6255 
  81   2.0000      -0.572401       -15.5758 
  82   2.0000      -0.564416       -15.3585 
  83   2.0000      -0.562651       -15.3105 
  84   2.0000      -0.553740       -15.0680 
  85   2.0000      -0.549366       -14.9490 
  86   2.0000      -0.545923       -14.8553 
  87   2.0000      -0.542446       -14.7607 
  88   2.0000      -0.538027       -14.6405 
  89   2.0000      -0.537487       -14.6258 
  90   2.0000      -0.530791       -14.4436 
  91   2.0000      -0.525810       -14.3080 
  92   2.0000      -0.525021       -14.2865 
  93   2.0000      -0.519010       -14.1230 
  94   2.0000      -0.516658       -14.0590 
  95   2.0000      -0.514864       -14.0102 
  96   2.0000      -0.495977       -13.4962 
  97   2.0000      -0.487949       -13.2778 
  98   2.0000      -0.483416       -13.1544 
  99   2.0000      -0.477160       -12.9842 
 100   2.0000      -0.471602       -12.8329 
 101   2.0000      -0.468325       -12.7438 
 102   2.0000      -0.449832       -12.2405 
 103   2.0000      -0.446648       -12.1539 
 104   2.0000      -0.445975       -12.1356 
 105   2.0000      -0.439157       -11.9501 
 106   2.0000      -0.435489       -11.8503 
 107   2.0000      -0.433948       -11.8083 
 108   2.0000      -0.421042       -11.4571 
 109   2.0000      -0.418648       -11.3920 
 110   2.0000      -0.400366       -10.8945 
 111   2.0000      -0.398528       -10.8445 
 112   2.0000      -0.391961       -10.6658 
 113   2.0000      -0.385250       -10.4832 
 114   2.0000      -0.375338       -10.2135 
 115   2.0000      -0.372779       -10.1438 
 116   2.0000      -0.366188        -9.9645 
 117   2.0000      -0.350732        -9.5439 
 118   2.0000      -0.343489        -9.3468 
 119   2.0000      -0.330430        -8.9915 
 120   2.0000      -0.301163        -8.1951 
 121   2.0000      -0.293584        -7.9888 
 122   2.0000      -0.288562        -7.8522 
 123   0.0000      -0.032669        -0.8890 
 124   0.0000      -0.001509        -0.0411 
 125   0.0000       0.020137         0.5480 
 126   0.0000       0.037336         1.0160 
 127   0.0000       0.047277         1.2865 
 128   0.0000       0.058479         1.5913 
 129   0.0000       0.072548         1.9741 
 130   0.0000       0.079419         2.1611 
 131   0.0000       0.085285         2.3207 
 132   0.0000       0.095613         2.6018 
 133   0.0000       0.102495         2.7890 
 134   0.0000       0.103265         2.8100 
 135   0.0000       0.109264         2.9732 
 136   0.0000       0.114437         3.1140 
 137   0.0000       0.120755         3.2859 
 138   0.0000       0.131185         3.5697 
 139   0.0000       0.135886         3.6976 
 140   0.0000       0.139294         3.7904 
 141   0.0000       0.143083         3.8935 
 142   0.0000       0.148012         4.0276 
 143   0.0000       0.149433         4.0663 
 144   0.0000       0.160199         4.3592 
 145   0.0000       0.166223         4.5232 
 146   0.0000       0.167831         4.5669 
 147   0.0000       0.172845         4.7034 
 148   0.0000       0.175643         4.7795 
 149   0.0000       0.182781         4.9737 
 150   0.0000       0.183911         5.0045 
 151   0.0000       0.186823         5.0837 
 152   0.0000       0.192332         5.2336 
 153   0.0000       0.196335         5.3425 
 154   0.0000       0.204788         5.5726 
 155   0.0000       0.210621         5.7313 
 156   0.0000       0.212814         5.7910 
 157   0.0000       0.220211         5.9922 
 158   0.0000       0.225150         6.1267 
 159   0.0000       0.225736         6.1426 
 160   0.0000       0.229823         6.2538 
 161   0.0000       0.242155         6.5894 
 162   0.0000       0.244684         6.6582 
 163   0.0000       0.249033         6.7765 
 164   0.0000       0.255037         6.9399 
 165   0.0000       0.258306         7.0289 
 166   0.0000       0.259461         7.0603 
 167   0.0000       0.264154         7.1880 
 168   0.0000       0.266919         7.2632 
 169   0.0000       0.268805         7.3146 
 170   0.0000       0.272039         7.4025 
 171   0.0000       0.277251         7.5444 
 172   0.0000       0.277985         7.5644 
 173   0.0000       0.279298         7.6001 
 174   0.0000       0.287481         7.8227 
 175   0.0000       0.289701         7.8832 
 176   0.0000       0.291526         7.9328 
 177   0.0000       0.292248         7.9525 
 178   0.0000       0.295157         8.0316 
 179   0.0000       0.296988         8.0814 
 180   0.0000       0.299753         8.1567 
 181   0.0000       0.302922         8.2429 
 182   0.0000       0.304230         8.2785 
 183   0.0000       0.307701         8.3730 
 184   0.0000       0.310114         8.4386 
 185   0.0000       0.312107         8.4929 
 186   0.0000       0.314566         8.5598 
 187   0.0000       0.318226         8.6594 
 188   0.0000       0.319501         8.6941 
 189   0.0000       0.326912         8.8957 
 190   0.0000       0.331515         9.0210 
 191   0.0000       0.333207         9.0670 
 192   0.0000       0.336035         9.1440 
 193   0.0000       0.340934         9.2773 
 194   0.0000       0.341410         9.2902 
 195   0.0000       0.348417         9.4809 
 196   0.0000       0.349232         9.5031 
 197   0.0000       0.351763         9.5720 
 198   0.0000       0.354645         9.6504 
 199   0.0000       0.356660         9.7052 
 200   0.0000       0.362822         9.8729 
 201   0.0000       0.365297         9.9402 
 202   0.0000       0.369404        10.0520 
 203   0.0000       0.370604        10.0847 
 204   0.0000       0.375387        10.2148 
 205   0.0000       0.378909        10.3106 
 206   0.0000       0.380908        10.3650 
 207   0.0000       0.384269        10.4565 
 208   0.0000       0.388511        10.5719 
 209   0.0000       0.390382        10.6228 
 210   0.0000       0.391276        10.6472 
 211   0.0000       0.398287        10.8379 
 212   0.0000       0.401133        10.9154 
 213   0.0000       0.402612        10.9556 
 214   0.0000       0.406303        11.0561 
 215   0.0000       0.407220        11.0810 
 216   0.0000       0.409995        11.1565 
 217   0.0000       0.413220        11.2443 
 218   0.0000       0.417916        11.3721 
 219   0.0000       0.420442        11.4408 
 220   0.0000       0.425706        11.5840 
 221   0.0000       0.430726        11.7207 
 222   0.0000       0.433722        11.8022 
 223   0.0000       0.435018        11.8375 
 224   0.0000       0.437100        11.8941 
 225   0.0000       0.440000        11.9730 
 226   0.0000       0.441116        12.0034 
 227   0.0000       0.444372        12.0920 
 228   0.0000       0.448067        12.1925 
 229   0.0000       0.451349        12.2818 
 230   0.0000       0.454551        12.3690 
 231   0.0000       0.458657        12.4807 
 232   0.0000       0.459267        12.4973 
 233   0.0000       0.462303        12.5799 
 234   0.0000       0.463811        12.6209 
 235   0.0000       0.467463        12.7203 
 236   0.0000       0.469619        12.7790 
 237   0.0000       0.472425        12.8554 
 238   0.0000       0.474428        12.9098 
 239   0.0000       0.477752        13.0003 
 240   0.0000       0.481004        13.0888 
 241   0.0000       0.487437        13.2638 
 242   0.0000       0.490128        13.3371 
 243   0.0000       0.491435        13.3726 
 244   0.0000       0.495390        13.4802 
 245   0.0000       0.497052        13.5255 
 246   0.0000       0.500210        13.6114 
 247   0.0000       0.501662        13.6509 
 248   0.0000       0.506116        13.7721 
 249   0.0000       0.509758        13.8712 
 250   0.0000       0.510515        13.8918 
 251   0.0000       0.514946        14.0124 
 252   0.0000       0.517126        14.0717 
 253   0.0000       0.517757        14.0889 
 254   0.0000       0.522894        14.2287 
 255   0.0000       0.527270        14.3478 
 256   0.0000       0.533365        14.5136 
 257   0.0000       0.537006        14.6127 
 258   0.0000       0.538856        14.6630 
 259   0.0000       0.540272        14.7015 
 260   0.0000       0.542093        14.7511 
 261   0.0000       0.548720        14.9314 
 262   0.0000       0.551257        15.0005 
 263   0.0000       0.552945        15.0464 
 264   0.0000       0.557580        15.1725 
 265   0.0000       0.560311        15.2469 
 266   0.0000       0.563974        15.3465 
 267   0.0000       0.567555        15.4440 
 268   0.0000       0.569800        15.5050 
 269   0.0000       0.572252        15.5718 
 270   0.0000       0.575714        15.6660 
 271   0.0000       0.578459        15.7407 
 272   0.0000       0.582701        15.8561 
 273   0.0000       0.587225        15.9792 
 274   0.0000       0.592164        16.1136 
 275   0.0000       0.593631        16.1535 
 276   0.0000       0.595249        16.1976 
 277   0.0000       0.600682        16.3454 
 278   0.0000       0.603524        16.4227 
 279   0.0000       0.611395        16.6369 
 280   0.0000       0.613325        16.6894 
 281   0.0000       0.621973        16.9247 
 282   0.0000       0.625058        17.0087 
 283   0.0000       0.631035        17.1713 
 284   0.0000       0.635640        17.2966 
 285   0.0000       0.640977        17.4419 
 286   0.0000       0.642076        17.4718 
 287   0.0000       0.643482        17.5100 
 288   0.0000       0.653198        17.7744 
 289   0.0000       0.658273        17.9125 
 290   0.0000       0.660174        17.9643 
 291   0.0000       0.663819        18.0634 
 292   0.0000       0.668271        18.1846 
 293   0.0000       0.674754        18.3610 
 294   0.0000       0.678201        18.4548 
 295   0.0000       0.683311        18.5938 
 296   0.0000       0.685504        18.6535 
 297   0.0000       0.686883        18.6910 
 298   0.0000       0.689423        18.7601 
 299   0.0000       0.694129        18.8882 
 300   0.0000       0.698469        19.0063 
 301   0.0000       0.700005        19.0481 
 302   0.0000       0.704260        19.1639 
 303   0.0000       0.706232        19.2175 
 304   0.0000       0.712357        19.3842 
 305   0.0000       0.716007        19.4835 
 306   0.0000       0.719755        19.5855 
 307   0.0000       0.724866        19.7246 
 308   0.0000       0.728908        19.8346 
 309   0.0000       0.732945        19.9445 
 310   0.0000       0.737130        20.0583 
 311   0.0000       0.742385        20.2013 
 312   0.0000       0.745722        20.2921 
 313   0.0000       0.749043        20.3825 
 314   0.0000       0.749867        20.4049 
 315   0.0000       0.751730        20.4556 
 316   0.0000       0.760036        20.6816 
 317   0.0000       0.761284        20.7156 
 318   0.0000       0.763579        20.7780 
 319   0.0000       0.765501        20.8304 
 320   0.0000       0.766977        20.8705 
 321   0.0000       0.776653        21.1338 
 322   0.0000       0.777743        21.1635 
 323   0.0000       0.784328        21.3427 
 324   0.0000       0.788139        21.4464 
 325   0.0000       0.791538        21.5388 
 326   0.0000       0.794259        21.6129 
 327   0.0000       0.797728        21.7073 
 328   0.0000       0.799925        21.7671 
 329   0.0000       0.805102        21.9079 
 330   0.0000       0.807542        21.9743 
 331   0.0000       0.813024        22.1235 
 332   0.0000       0.814155        22.1543 
 333   0.0000       0.819105        22.2890 
 334   0.0000       0.821153        22.3447 
 335   0.0000       0.822407        22.3788 
 336   0.0000       0.826473        22.4895 
 337   0.0000       0.828472        22.5439 
 338   0.0000       0.833604        22.6835 
 339   0.0000       0.838595        22.8193 
 340   0.0000       0.844125        22.9698 
 341   0.0000       0.847671        23.0663 
 342   0.0000       0.849894        23.1268 
 343   0.0000       0.854759        23.2592 
 344   0.0000       0.860968        23.4281 
 345   0.0000       0.862645        23.4738 
 346   0.0000       0.865474        23.5508 
 347   0.0000       0.866647        23.5827 
 348   0.0000       0.877177        23.8692 
 349   0.0000       0.886408        24.1204 
 350   0.0000       0.889194        24.1962 
 351   0.0000       0.893185        24.3048 
 352   0.0000       0.899307        24.4714 
 353   0.0000       0.902938        24.5702 
 354   0.0000       0.905792        24.6479 
 355   0.0000       0.908958        24.7340 
 356   0.0000       0.913988        24.8709 
 357   0.0000       0.914966        24.8975 
 358   0.0000       0.916570        24.9411 
 359   0.0000       0.924578        25.1591 
 360   0.0000       0.930053        25.3080 
 361   0.0000       0.931569        25.3493 
 362   0.0000       0.933612        25.4049 
 363   0.0000       0.936449        25.4821 
 364   0.0000       0.940913        25.6035 
 365   0.0000       0.943127        25.6638 
 366   0.0000       0.950529        25.8652 
 367   0.0000       0.954061        25.9613 
 368   0.0000       0.957505        26.0550 
 369   0.0000       0.962157        26.1816 
 370   0.0000       0.970004        26.3952 
 371   0.0000       0.973060        26.4783 
 372   0.0000       0.977884        26.6096 
 373   0.0000       0.985641        26.8207 
 374   0.0000       0.989209        26.9178 
 375   0.0000       0.993807        27.0429 
 376   0.0000       0.998644        27.1745 
 377   0.0000       1.001590        27.2546 
 378   0.0000       1.003270        27.3004 
 379   0.0000       1.014496        27.6059 
 380   0.0000       1.017647        27.6916 
 381   0.0000       1.022532        27.8245 
 382   0.0000       1.033697        28.1283 
 383   0.0000       1.034715        28.1560 
 384   0.0000       1.040413        28.3111 
 385   0.0000       1.043740        28.4016 
 386   0.0000       1.054442        28.6928 
 387   0.0000       1.064553        28.9680 
 388   0.0000       1.066619        29.0242 
 389   0.0000       1.073065        29.1996 
 390   0.0000       1.079022        29.3617 
 391   0.0000       1.087297        29.5869 
 392   0.0000       1.089267        29.6405 
 393   0.0000       1.102157        29.9912 
 394   0.0000       1.102916        30.0119 
 395   0.0000       1.107883        30.1470 
 396   0.0000       1.110128        30.2081 
 397   0.0000       1.119548        30.4644 
 398   0.0000       1.122134        30.5348 
 399   0.0000       1.130306        30.7572 
 400   0.0000       1.137976        30.9659 
 401   0.0000       1.142812        31.0975 
 402   0.0000       1.143436        31.1145 
 403   0.0000       1.162092        31.6221 
 404   0.0000       1.165308        31.7096 
 405   0.0000       1.172815        31.9139 
 406   0.0000       1.177650        32.0455 
 407   0.0000       1.180411        32.1206 
 408   0.0000       1.191180        32.4137 
 409   0.0000       1.195080        32.5198 
 410   0.0000       1.203332        32.7443 
 411   0.0000       1.209376        32.9088 
 412   0.0000       1.216621        33.1059 
 413   0.0000       1.225250        33.3408 
 414   0.0000       1.226355        33.3708 
 415   0.0000       1.233184        33.5566 
 416   0.0000       1.236200        33.6387 
 417   0.0000       1.240990        33.7691 
 418   0.0000       1.244792        33.8725 
 419   0.0000       1.247819        33.9549 
 420   0.0000       1.260784        34.3077 
 421   0.0000       1.266144        34.4535 
 422   0.0000       1.271192        34.5909 
 423   0.0000       1.271532        34.6002 
 424   0.0000       1.284293        34.9474 
 425   0.0000       1.287286        35.0288 
 426   0.0000       1.290712        35.1221 
 427   0.0000       1.293253        35.1912 
 428   0.0000       1.304336        35.4928 
 429   0.0000       1.308360        35.6023 
 430   0.0000       1.313240        35.7351 
 431   0.0000       1.320474        35.9319 
 432   0.0000       1.323545        36.0155 
 433   0.0000       1.325595        36.0713 
 434   0.0000       1.334952        36.3259 
 435   0.0000       1.338560        36.4241 
 436   0.0000       1.344054        36.5736 
 437   0.0000       1.347496        36.6672 
 438   0.0000       1.352102        36.7926 
 439   0.0000       1.359706        36.9995 
 440   0.0000       1.366179        37.1756 
 441   0.0000       1.369027        37.2531 
 442   0.0000       1.377991        37.4970 
 443   0.0000       1.381498        37.5925 
 444   0.0000       1.385980        37.7144 
 445   0.0000       1.389915        37.8215 
 446   0.0000       1.397173        38.0190 
 447   0.0000       1.402684        38.1690 
 448   0.0000       1.403664        38.1956 
 449   0.0000       1.409612        38.3575 
 450   0.0000       1.423116        38.7250 
 451   0.0000       1.428800        38.8796 
 452   0.0000       1.432241        38.9732 
 453   0.0000       1.441206        39.2172 
 454   0.0000       1.444251        39.3001 
 455   0.0000       1.448005        39.4022 
 456   0.0000       1.453549        39.5531 
 457   0.0000       1.462226        39.7892 
 458   0.0000       1.469817        39.9958 
 459   0.0000       1.474185        40.1146 
 460   0.0000       1.481484        40.3132 
 461   0.0000       1.485648        40.4266 
 462   0.0000       1.490290        40.5529 
 463   0.0000       1.492121        40.6027 
 464   0.0000       1.498870        40.7863 
 465   0.0000       1.500634        40.8343 
 466   0.0000       1.504884        40.9500 
 467   0.0000       1.512419        41.1550 
 468   0.0000       1.514187        41.2031 
 469   0.0000       1.521953        41.4144 
 470   0.0000       1.523603        41.4594 
 471   0.0000       1.533909        41.7398 
 472   0.0000       1.536371        41.8068 
 473   0.0000       1.542686        41.9786 
 474   0.0000       1.545888        42.0657 
 475   0.0000       1.551238        42.2113 
 476   0.0000       1.552064        42.2338 
 477   0.0000       1.560137        42.4535 
 478   0.0000       1.565073        42.5878 
 479   0.0000       1.567416        42.6516 
 480   0.0000       1.574707        42.8500 
 481   0.0000       1.580045        42.9952 
 482   0.0000       1.592874        43.3443 
 483   0.0000       1.601250        43.5722 
 484   0.0000       1.603029        43.6206 
 485   0.0000       1.606296        43.7095 
 486   0.0000       1.609473        43.7960 
 487   0.0000       1.611398        43.8484 
 488   0.0000       1.612871        43.8884 
 489   0.0000       1.613222        43.8980 
 490   0.0000       1.616904        43.9982 
 491   0.0000       1.624600        44.2076 
 492   0.0000       1.627284        44.2807 
 493   0.0000       1.632952        44.4349 
 494   0.0000       1.634227        44.4696 
 495   0.0000       1.642524        44.6954 
 496   0.0000       1.643406        44.7193 
 497   0.0000       1.648348        44.8538 
 498   0.0000       1.651065        44.9278 
 499   0.0000       1.659645        45.1612 
 500   0.0000       1.664246        45.2864 
 501   0.0000       1.667231        45.3677 
 502   0.0000       1.669909        45.4405 
 503   0.0000       1.675646        45.5966 
 504   0.0000       1.681057        45.7439 
 505   0.0000       1.686514        45.8924 
 506   0.0000       1.690568        46.0027 
 507   0.0000       1.693998        46.0960 
 508   0.0000       1.695160        46.1276 
 509   0.0000       1.697365        46.1876 
 510   0.0000       1.701767        46.3074 
 511   0.0000       1.704539        46.3829 
 512   0.0000       1.708997        46.5042 
 513   0.0000       1.715718        46.6871 
 514   0.0000       1.720193        46.8088 
 515   0.0000       1.722967        46.8843 
 516   0.0000       1.724531        46.9269 
 517   0.0000       1.735850        47.2349 
 518   0.0000       1.737273        47.2736 
 519   0.0000       1.743764        47.4502 
 520   0.0000       1.747615        47.5550 
 521   0.0000       1.750094        47.6225 
 522   0.0000       1.753549        47.7165 
 523   0.0000       1.763662        47.9917 
 524   0.0000       1.770909        48.1889 
 525   0.0000       1.774907        48.2977 
 526   0.0000       1.780621        48.4532 
 527   0.0000       1.782041        48.4918 
 528   0.0000       1.789406        48.6922 
 529   0.0000       1.793088        48.7924 
 530   0.0000       1.795639        48.8618 
 531   0.0000       1.800076        48.9826 
 532   0.0000       1.802058        49.0365 
 533   0.0000       1.806025        49.1445 
 534   0.0000       1.809557        49.2405 
 535   0.0000       1.813648        49.3519 
 536   0.0000       1.815110        49.3916 
 537   0.0000       1.820354        49.5344 
 538   0.0000       1.825358        49.6705 
 539   0.0000       1.827314        49.7237 
 540   0.0000       1.832098        49.8539 
 541   0.0000       1.834382        49.9161 
 542   0.0000       1.841559        50.1114 
 543   0.0000       1.848215        50.2925 
 544   0.0000       1.855174        50.4819 
 545   0.0000       1.863583        50.7107 
 546   0.0000       1.864368        50.7320 
 547   0.0000       1.873481        50.9800 
 548   0.0000       1.877291        51.0837 
 549   0.0000       1.884121        51.2695 
 550   0.0000       1.889384        51.4128 
 551   0.0000       1.894759        51.5590 
 552   0.0000       1.907132        51.8957 
 553   0.0000       1.908363        51.9292 
 554   0.0000       1.920870        52.2695 
 555   0.0000       1.923819        52.3498 
 556   0.0000       1.936649        52.6989 
 557   0.0000       1.940070        52.7920 
 558   0.0000       1.943684        52.8903 
 559   0.0000       1.948426        53.0194 
 560   0.0000       1.954555        53.1861 
 561   0.0000       1.959747        53.3274 
 562   0.0000       1.965079        53.4725 
 563   0.0000       1.969337        53.5884 
 564   0.0000       1.979792        53.8729 
 565   0.0000       1.980700        53.8976 
 566   0.0000       1.981285        53.9135 
 567   0.0000       1.988717        54.1157 
 568   0.0000       2.001786        54.4714 
 569   0.0000       2.008935        54.6659 
 570   0.0000       2.017428        54.8970 
 571   0.0000       2.019609        54.9563 
 572   0.0000       2.027912        55.1823 
 573   0.0000       2.031447        55.2785 
 574   0.0000       2.039108        55.4869 
 575   0.0000       2.043968        55.6192 
 576   0.0000       2.050102        55.7861 
 577   0.0000       2.053835        55.8877 
 578   0.0000       2.058009        56.0013 
 579   0.0000       2.071793        56.3763 
 580   0.0000       2.073984        56.4360 
 581   0.0000       2.084786        56.7299 
 582   0.0000       2.090489        56.8851 
 583   0.0000       2.095229        57.0141 
 584   0.0000       2.098244        57.0961 
 585   0.0000       2.107262        57.3415 
 586   0.0000       2.109237        57.3953 
 587   0.0000       2.113434        57.5095 
 588   0.0000       2.129869        57.9567 
 589   0.0000       2.135427        58.1079 
 590   0.0000       2.139686        58.2238 
 591   0.0000       2.144456        58.3536 
 592   0.0000       2.148917        58.4750 
 593   0.0000       2.153915        58.6110 
 594   0.0000       2.157822        58.7173 
 595   0.0000       2.171563        59.0912 
 596   0.0000       2.175728        59.2046 
 597   0.0000       2.180907        59.3455 
 598   0.0000       2.182649        59.3929 
 599   0.0000       2.187880        59.5352 
 600   0.0000       2.190078        59.5951 
 601   0.0000       2.195950        59.7548 
 602   0.0000       2.199797        59.8595 
 603   0.0000       2.209969        60.1363 
 604   0.0000       2.215142        60.2771 
 605   0.0000       2.221596        60.4527 
 606   0.0000       2.228513        60.6409 
 607   0.0000       2.231269        60.7159 
 608   0.0000       2.232599        60.7521 
 609   0.0000       2.239351        60.9358 
 610   0.0000       2.244280        61.0700 
 611   0.0000       2.252300        61.2882 
 612   0.0000       2.258254        61.4502 
 613   0.0000       2.258913        61.4681 
 614   0.0000       2.272409        61.8354 
 615   0.0000       2.281148        62.0732 
 616   0.0000       2.292013        62.3688 
 617   0.0000       2.297029        62.5053 
 618   0.0000       2.301226        62.6195 
 619   0.0000       2.301804        62.6353 
 620   0.0000       2.308425        62.8154 
 621   0.0000       2.315524        63.0086 
 622   0.0000       2.320627        63.1475 
 623   0.0000       2.328047        63.3494 
 624   0.0000       2.330929        63.4278 
 625   0.0000       2.335509        63.5524 
 626   0.0000       2.342737        63.7491 
 627   0.0000       2.344417        63.7948 
 628   0.0000       2.350423        63.9583 
 629   0.0000       2.351761        63.9947 
 630   0.0000       2.359694        64.2106 
 631   0.0000       2.363981        64.3272 
 632   0.0000       2.372362        64.5552 
 633   0.0000       2.382766        64.8383 
 634   0.0000       2.396860        65.2219 
 635   0.0000       2.409371        65.5623 
 636   0.0000       2.417281        65.7775 
 637   0.0000       2.426106        66.0177 
 638   0.0000       2.430224        66.1298 
 639   0.0000       2.435891        66.2840 
 640   0.0000       2.438943        66.3670 
 641   0.0000       2.445001        66.5319 
 642   0.0000       2.459297        66.9209 
 643   0.0000       2.468724        67.1774 
 644   0.0000       2.471999        67.2665 
 645   0.0000       2.487965        67.7010 
 646   0.0000       2.499219        68.0072 
 647   0.0000       2.500587        68.0444 
 648   0.0000       2.514102        68.4122 
 649   0.0000       2.516777        68.4850 
 650   0.0000       2.525926        68.7339 
 651   0.0000       2.535645        68.9984 
 652   0.0000       2.539321        69.0984 
 653   0.0000       2.546564        69.2955 
 654   0.0000       2.562234        69.7219 
 655   0.0000       2.573167        70.0194 
 656   0.0000       2.580086        70.2077 
 657   0.0000       2.583958        70.3131 
 658   0.0000       2.597018        70.6684 
 659   0.0000       2.608859        70.9907 
 660   0.0000       2.620072        71.2958 
 661   0.0000       2.620531        71.3083 
 662   0.0000       2.630797        71.5876 
 663   0.0000       2.640413        71.8493 
 664   0.0000       2.644506        71.9607 
 665   0.0000       2.654593        72.2352 
 666   0.0000       2.655393        72.2569 
 667   0.0000       2.659270        72.3624 
 668   0.0000       2.667031        72.5736 
 669   0.0000       2.671963        72.7078 
 670   0.0000       2.678723        72.8918 
 671   0.0000       2.689922        73.1965 
 672   0.0000       2.693971        73.3067 
 673   0.0000       2.695046        73.3359 
 674   0.0000       2.701511        73.5118 
 675   0.0000       2.703342        73.5617 
 676   0.0000       2.704537        73.5942 
 677   0.0000       2.709016        73.7161 
 678   0.0000       2.717524        73.9476 
 679   0.0000       2.721148        74.0462 
 680   0.0000       2.731264        74.3215 
[...]
 144   8.661     143.1   0.093119   0.085629   2.904069   2.375678     0.04 (  71->  86)    0.03 (  76->  84)    0.03 (  73->  84)
 145   8.684     142.8   0.008569   0.006277  28.731886  23.449412     0.05 (  61->  77)    0.03 (  61->  79)    0.03 (  52->  78)
 146   8.698     142.5   0.009146   0.007356   7.509392   6.054739     0.06 (  68->  86)    0.03 (  60->  85)    0.03 (  70->  86)
 147   8.703     142.5   0.040611   0.037638  -11.999037  -11.992761     0.05 (  68->  86)    0.03 (  66->  81)    0.03 (  65->  81)
 148   8.723     142.1   0.021999   0.018804   7.347907   7.028180     0.04 (  76-> 110)    0.03 (  60->  77)    0.02 (  60->  79)
 149   8.726     142.1   0.014505   0.012976   5.922379   5.728947     0.09 (  64->  78)    0.06 (  65->  78)    0.04 (  63->  77)
 150   8.747     141.7   0.027029   0.027641  21.104425  20.700765     0.03 (  71->  86)    0.03 (  46->  77)    0.02 (  62->  78)
 151   8.771     141.4   0.020095   0.016571  20.836476  18.700108     0.05 (  66->  83)    0.04 (  66->  82)    0.03 (  64->  82)
 152   8.781     141.2   0.104545   0.094667  -106.130983  -100.255860     0.05 (  46->  77)    0.04 (  65->  81)    0.03 (  58->  77)
 153   8.795     141.0   0.015832   0.014285  -11.218879  -11.499931     0.05 (  70->  97)    0.04 (  70->  92)    0.03 (  70->  93)
 154   8.800     140.9   0.006739   0.006134  17.523894  15.773921     0.04 (  74->  91)    0.03 (  74-> 105)    0.02 (  76-> 110)
 155   8.810     140.7   0.024055   0.020721  -12.898795  -11.997128     0.08 (  74-> 104)    0.05 (  74-> 105)    0.05 (  75-> 106)
 156   8.826     140.5   0.010948   0.009217  18.824060  16.179385     0.06 (  70->  97)    0.05 (  66->  84)    0.04 (  70->  95)
 157   8.837     140.3   0.004928   0.004423  -6.954969  -6.442000     0.07 (  63->  78)    0.05 (  64->  83)    0.03 (  58->  81)
 158   8.852     140.1   0.046621   0.043519  19.541840  19.063366     0.05 (  67->  84)    0.04 (  76->  85)    0.04 (  66->  81)
 159   8.861     139.9   0.014231   0.012645  -20.211827  -18.648066     0.08 (  66->  84)    0.05 (  69->  88)    0.03 (  70->  91)
 160   8.861     139.9   0.000783   0.000974   2.426279   1.466997     0.04 (  63->  78)    0.03 (  74-> 110)    0.02 (  65->  83)
 161   8.879     139.6   0.000788   0.000846   0.187600   0.651790     0.03 (  62->  79)    0.03 (  64->  79)    0.02 (  46->  77)
 162   8.891     139.4   0.010432   0.009064  32.618687  29.879036     0.06 (  69->  93)    0.06 (  69->  97)    0.02 (  69->  96)
 163   8.897     139.4   0.018465   0.016455  22.565995  21.935414     0.04 (  65->  81)    0.03 (  67->  89)    0.02 (  66->  81)
 164   8.917     139.0   0.003258   0.003341   2.972311   3.685781     0.03 (  69->  97)    0.03 (  59->  77)    0.03 (  76->  91)
 165   8.928     138.9   0.010811   0.008726  -12.111073  -11.274437     0.04 (  71->  80)    0.03 (  61->  77)    0.02 (  51->  78)
 166   8.951     138.5   0.019782   0.018221  55.240481  54.118476     0.03 (  76->  85)    0.02 (  67->  86)    0.02 (  69->  88)
 167   8.962     138.3   0.023326   0.020887  28.534522  26.970395     0.04 (  76->  85)    0.03 (  75->  85)    0.02 (  42->  77)
 168   8.983     138.0   0.003378   0.003459  10.910146  11.597321     0.10 (  74-> 106)    0.04 (  71->  80)    0.03 (  74-> 102)
 169   8.992     137.9   0.007077   0.005982  -32.762181  -28.756745     0.06 (  57->  77)    0.02 (  50->  78)    0.02 (  42->  77)
 170   9.012     137.6   0.044619   0.040456  -52.804384  -50.497790     0.03 (  67->  86)    0.03 (  63->  80)    0.03 (  64->  80)
 171   9.022     137.4   0.021560   0.021022   6.010403   5.835185     0.04 (  71->  80)    0.03 (  73->  80)    0.03 (  63->  80)
 172   9.031     137.3   0.006215   0.005568   9.608240   8.055797     0.04 (  62->  81)    0.02 (  68->  88)    0.02 (  67->  86)
 173   9.042     137.1   0.010787   0.009840  22.989409  21.754865     0.04 (  71->  80)    0.03 (  73->  80)    0.02 (  74-> 104)
 174   9.049     137.0   0.010816   0.009779   4.816922   4.562310     0.04 (  74->  91)    0.04 (  76->  91)    0.03 (  58->  81)
 175   9.058     136.9   0.009738   0.008620  -11.506574  -10.634457     0.04 (  71->  80)    0.03 (  64->  80)    0.03 (  63->  80)
 176   9.095     136.3   0.001697   0.001609   2.562618   2.446015     0.07 (  64->  80)    0.06 (  71->  80)    0.05 (  73->  80)
 177   9.115     136.0   0.027532   0.024967  -19.938148  -19.811818     0.08 (  74-> 107)    0.07 (  74-> 106)    0.04 (  74->  91)
 178   9.129     135.8   0.032833   0.027677  23.083468  18.564602     0.03 (  74->  91)    0.03 (  76->  88)    0.03 (  74->  88)
 179   9.133     135.8   0.027362   0.023833  -27.127627  -24.754220     0.03 (  58->  77)    0.02 (  67->  79)    0.02 (  66->  86)
 180   9.150     135.5   0.018585   0.018132   7.764208   8.316652     0.06 (  75-> 108)    0.05 (  76-> 108)    0.04 (  76->  90)
 181   9.154     135.4   0.019947   0.018800  -14.556389  -14.157057     0.04 (  75->  88)    0.02 (  57->  77)    0.02 (  74-> 107)
 182   9.160     135.4   0.001398   0.001334  -1.017705  -0.466903     0.11 (  72->  97)    0.06 (  72-> 102)    0.06 (  72->  98)
 183   9.180     135.1   0.013792   0.011842  -0.865429  -0.609767     0.07 (  72->  97)    0.05 (  72-> 102)    0.04 (  75-> 108)
 184   9.184     135.0   0.007616   0.007714  -8.393148  -8.709427     0.06 (  55->  81)    0.04 (  75->  86)    0.03 (  67->  79)
 185   9.196     134.8   0.012804   0.010691  -4.872148  -4.946580     0.03 (  50->  78)    0.03 (  49->  77)    0.03 (  42->  77)
 186   9.210     134.6   0.010723   0.010013  15.300252  14.120920     0.07 (  75->  86)    0.07 (  55->  81)    0.07 (  76->  86)
 187   9.232     134.3   0.018568   0.015598  -2.834974  -2.287298     0.19 (  72->  81)    0.07 (  72->  98)    0.06 (  72->  82)
 188   9.240     134.2   0.005096   0.004594  -6.629388  -6.093854     0.03 (  63->  84)    0.02 (  73->  82)    0.02 (  76-> 109)
 189   9.251     134.0   0.002764   0.002417  -7.552349  -7.871780     0.09 (  72->  81)    0.03 (  72->  82)    0.03 (  74->  88)
 190   9.281     133.6   0.010707   0.009365  -15.233621  -14.436961     0.04 (  64->  84)    0.03 (  58->  85)    0.02 (  62->  83)
 191   9.296     133.4   0.011817   0.010806  44.777524  43.324035     0.05 (  74-> 110)    0.05 (  71->  92)    0.03 (  75-> 113)
 192   9.305     133.2   0.015268   0.012157  -1.788998  -2.029248     0.11 (  58->  77)    0.09 (  58->  85)    0.06 (  58->  79)
 193   9.322     133.0   0.009893   0.008050  15.430766  13.959833     0.06 (  48->  78)    0.04 (  49->  78)    0.03 (  49->  77)
 194   9.329     132.9   0.026804   0.024618  28.849982  29.444986     0.05 (  64->  84)    0.03 (  63->  82)    0.03 (  66->  86)
 195   9.335     132.8   0.002682   0.002184   9.558408   7.129884     0.03 (  62->  79)    0.02 (  76->  91)    0.02 (  73->  92)
 196   9.336     132.8   0.025436   0.021204  -20.275414  -19.264545     0.07 (  49->  78)    0.04 (  48->  77)    0.03 (  48->  78)
 197   9.350     132.6   0.017281   0.016123   8.566592   8.339313     0.17 (  70->  80)    0.16 (  68->  80)    0.07 (  69->  80)
 198   9.364     132.4   0.009305   0.008808  -4.288842  -3.102293     0.06 (  70->  85)    0.03 (  68->  85)    0.03 (  70->  86)
 199   9.371     132.3   0.001204   0.001077  -3.673112  -4.686207     0.03 (  60->  77)    0.03 (  75->  86)    0.03 (  67->  83)
 200   9.385     132.1   0.009424   0.007767  -3.528983  -3.008215     0.05 (  68->  80)    0.05 (  70->  80)    0.04 (  73->  92)
 201   9.391     132.0   0.031026   0.028207   8.018895   7.792431     0.03 (  66->  91)    0.02 (  71->  83)    0.02 (  74-> 110)
 202   9.403     131.9   0.013904   0.012128  -0.895652  -0.646995     0.06 (  74-> 110)    0.03 (  54->  81)    0.03 (  68->  86)
 203   9.418     131.6   0.017190   0.014397  -1.132851  -0.309982     0.04 (  54->  81)    0.03 (  72->  81)    0.02 (  65->  91)
 204   9.426     131.5   0.004792   0.003831  -26.989340  -24.268406     0.03 (  65->  86)    0.03 (  67->  84)    0.02 (  67->  79)
 205   9.435     131.4   0.023774   0.021620  -22.986780  -24.295710     0.05 (  68->  86)    0.04 (  67->  83)    0.02 (  60->  85)
 206   9.446     131.3   0.044381   0.036925   2.386313   4.139262     0.03 (  72->  81)    0.03 (  67->  92)    0.03 (  59->  87)
 207   9.462     131.0   0.015192   0.016418  47.855767  48.224991     0.07 (  59->  87)    0.05 (  74-> 110)    0.04 (  52->  87)
 208   9.466     131.0   0.030994   0.029337   2.647958   1.531121     0.05 (  72->  83)    0.05 (  59->  87)    0.04 (  72->  81)
 209   9.472     130.9   0.064084   0.061975  -108.161225  -108.424827     0.06 (  59->  87)    0.05 (  66->  88)    0.04 (  59->  88)
 210   9.480     130.8   0.026747   0.022964  -30.292479  -26.198972     0.07 (  72->  83)    0.04 (  59->  87)    0.03 (  40->  77)
 211   9.483     130.7   0.046653   0.048861  -50.271353  -49.224437     0.05 (  59->  87)    0.04 (  67->  90)    0.03 (  54->  77)
 212   9.500     130.5   0.015007   0.013196  -7.377658  -7.112422     0.03 (  62->  83)    0.03 (  72-> 103)    0.03 (  70->  81)
 213   9.507     130.4   0.006140   0.005667  -2.296403  -1.944871     0.07 (  72-> 100)    0.03 (  72->  81)    0.03 (  40->  77)
 214   9.521     130.2   0.008437   0.006623  -12.816840  -11.231966     0.07 (  72-> 105)    0.05 (  72-> 100)    0.04 (  72-> 104)
 215   9.529     130.1   0.013775   0.011544  -0.617640  -1.458701     0.04 (  75->  90)    0.03 (  70->  81)    0.03 (  73->  94)
 216   9.544     129.9   0.009595   0.008470  10.800689   9.963906     0.02 (  67->  90)    0.02 (  68->  80)    0.02 (  72-> 103)
 217   9.554     129.8   0.008166   0.007824  -5.582681  -5.719704     0.13 (  52->  80)    0.07 (  66->  91)    0.02 (  72-> 105)
 218   9.559     129.7   0.028299   0.025729  -4.426494  -4.872676     0.26 (  52->  80)    0.03 (  65->  91)    0.03 (  65->  80)
 219   9.561     129.7   0.018808   0.017683  17.147224  16.273628     0.05 (  52->  80)    0.05 (  72-> 103)    0.03 (  69->  81)
 220   9.578     129.5   0.009645   0.008097  12.148481  11.204703     0.05 (  52->  80)    0.04 (  70->  81)    0.03 (  72-> 100)
 221   9.585     129.4   0.013089   0.010546   9.627919   8.918241     0.08 (  69->  81)    0.06 (  72-> 100)    0.04 (  70->  81)
 222   9.592     129.3   0.003075   0.002894  -7.120159  -6.608422     0.06 (  52->  80)    0.03 (  66->  91)    0.02 (  66->  90)
 223   9.602     129.1   0.033608   0.030018  11.598964  10.426183     0.04 (  72-> 103)    0.03 (  69->  81)    0.02 (  66->  91)
 224   9.617     128.9   0.002675   0.001958  -9.530285  -8.167461     0.06 (  72-> 103)    0.04 (  76->  87)    0.03 (  71->  95)
 225   9.636     128.7   0.004797   0.003842   6.528728   4.790296     0.05 (  76->  87)    0.02 (  48->  78)    0.02 (  76-> 113)
 226   9.644     128.6   0.028361   0.026652  23.949585  23.209152     0.09 (  51->  80)    0.05 (  63->  79)    0.03 (  65->  91)
 227   9.648     128.5   0.003970   0.003763   9.292809  10.628834     0.10 (  72-> 103)    0.06 (  63->  79)    0.02 (  64->  91)
 228   9.658     128.4   0.008811   0.007402   9.272687   8.419294     0.05 (  72->  83)    0.04 (  72-> 104)    0.03 (  72-> 105)
 229   9.666     128.3   0.023389   0.018985  21.725968  19.391289     0.05 (  72-> 103)    0.04 (  64->  91)    0.04 (  76->  87)
 230   9.673     128.2   0.013370   0.012565  -4.912593  -5.785486     0.07 (  76->  87)    0.06 (  75->  87)    0.05 (  72->  83)
 231   9.684     128.0   0.015175   0.013971  -8.785824  -8.240718     0.15 (  76->  87)    0.12 (  75->  87)    0.07 (  76->  88)
 232   9.695     127.9   0.012896   0.011373  -22.930796  -20.470296     0.03 (  76->  90)    0.03 (  76-> 111)    0.03 (  72-> 103)
 233   9.700     127.8   0.008822   0.007804   3.183546   2.897803     0.07 (  51->  80)    0.05 (  72-> 103)    0.04 (  68->  80)
 234   9.708     127.7   0.020615   0.018001  -26.946090  -25.716304     0.04 (  62->  79)    0.04 (  51->  80)    0.03 (  48->  77)
 235   9.736     127.3   0.021045   0.018555  25.051129  23.424252     0.05 (  76-> 111)    0.05 (  71->  94)    0.03 (  76->  89)
 236   9.740     127.3   0.004437   0.003663  -8.449305  -7.946278     0.07 (  76-> 111)    0.04 (  75-> 111)    0.03 (  51->  80)
 237   9.743     127.3   0.007372   0.006217   0.212548  -1.496061     0.04 (  76->  90)    0.03 (  72-> 103)    0.02 (  71->  85)
 238   9.752     127.1   0.002992   0.002720   3.524986   4.127803     0.04 (  56->  82)    0.03 (  64->  86)    0.02 (  56->  77)
 239   9.765     127.0   0.015307   0.013243   1.658496   0.755199     0.06 (  76->  89)    0.04 (  75->  89)    0.02 (  74->  90)
 240   9.779     126.8   0.004542   0.003423  -12.741284  -11.966560     0.04 (  58->  81)    0.03 (  58->  77)    0.02 (  56->  82)
 241   9.788     126.7   0.032781   0.027894  -40.032030  -37.071261     0.03 (  72-> 103)    0.02 (  65->  97)    0.02 (  76-> 114)
 242   9.801     126.5   0.002105   0.001983   8.330939   8.306588     0.04 (  68->  90)    0.03 (  70->  90)    0.02 (  60->  85)
 243   9.806     126.4   0.008255   0.007818  17.568975  16.875318     0.07 (  76->  89)    0.07 (  75->  89)    0.02 (  70->  94)
 244   9.810     126.4   0.006996   0.006774  24.943382  24.372948     0.13 (  75->  89)    0.11 (  76->  89)    0.03 (  73-> 101)
 245   9.826     126.2   0.014361   0.012314   2.411723   1.689549     0.12 (  74-> 111)    0.03 (  57->  78)    0.02 (  75->  89)
 246   9.828     126.2   0.024368   0.018966  -40.528925  -36.083131     0.05 (  76-> 113)    0.05 (  75-> 112)    0.05 (  75-> 111)
 247   9.841     126.0   0.001102   0.001118  -0.546591  -0.254375     0.05 (  63->  91)    0.04 (  63->  88)    0.03 (  64->  79)
 248   9.852     125.8   0.014643   0.012266  -2.223224  -1.631725     0.02 (  68->  90)    0.02 (  71-> 100)    0.02 (  63->  91)
 249   9.856     125.8   0.003457   0.002501  -11.638521  -10.254991     0.53 (  50->  80)    0.01 (  74-> 111)    0.01 (  68->  84)
 250   9.859     125.8   0.016601   0.015823  22.282842  20.901020     0.16 (  50->  80)    0.03 (  67->  81)    0.03 (  68->  84)
 251   9.881     125.5   0.010901   0.010271  -6.023980  -8.065202     0.03 (  55->  77)    0.03 (  73-> 101)    0.02 (  47->  77)
 252   9.889     125.4   0.007117   0.006398  -15.453433  -15.972136     0.04 (  76-> 116)    0.03 (  51->  80)    0.02 (  50->  80)
 253   9.897     125.3   0.008893   0.007514   7.305159   7.517760     0.03 (  55->  77)    0.03 (  45->  79)    0.02 (  45->  77)
 254   9.909     125.1   0.017002   0.014020  -3.421721  -3.427957     0.05 (  71-> 100)    0.02 (  63->  91)    0.02 (  69->  90)
 255   9.921     125.0   0.005546   0.004881  12.633358   9.061947     0.07 (  74->  88)    0.05 (  74->  90)    0.03 (  76->  92)
 256   9.927     124.9   0.007036   0.006298  31.960571  29.322707     0.11 (  74->  87)    0.06 (  74->  88)    0.03 (  75->  88)
 257   9.943     124.7   0.005857   0.005579  -7.771788  -7.551504     0.30 (  74->  87)    0.06 (  75->  87)    0.05 (  74->  88)
 258   9.968     124.4   0.010758   0.009215  12.803047  11.776005     0.13 (  74->  87)    0.10 (  74-> 111)    0.03 (  75-> 111)
 259   9.973     124.3   0.011223   0.010453   4.877686   4.108770     0.02 (  76-> 112)    0.02 (  55->  77)    0.02 (  75-> 115)
 260   9.977     124.3   0.018067   0.015513  -33.539381  -30.345702     0.04 (  36->  77)    0.03 (  44->  78)    0.02 (  55->  77)
 261   9.986     124.2   0.050555   0.051390  -33.428302  -34.745727     0.02 (  55->  77)    0.02 (  47->  78)    0.02 (  47->  79)
 262   9.995     124.0   0.056291   0.057743  67.176390  68.130272     0.03 (  67->  80)    0.02 (  44->  77)    0.02 (  44->  78)

sTD-DFT done

Total run time:       36.555 sec

           *** ORCA-CIS/TD-DFT FINISHED WITHOUT ERROR ***


-------------------------------------------------------------------------------
                          DFT DISPERSION CORRECTION                            
                                                                               
                              DFTD3 V3.1  Rev 1                                
                              USING zero damping                               
-------------------------------------------------------------------------------
The omegaB97X-D3 functional is recognized. Fit by Chai et al.
Active option DFTDOPT                   ...         3   

molecular C6(AA) [au] = 41087.471144 


            DFT-D V3
 parameters
 s6 scaling factor         :     1.0000 
 rs6 scaling factor        :     1.2810 
 s8 scaling factor         :     1.0000 
 rs8 scaling factor        :     1.0940 
 Damping factor alpha6     :    14.0000 
 Damping factor alpha8     :    16.0000 
 ad hoc parameters k1-k3   :    16.0000     1.3333    -4.0000 

 Edisp/kcal,au: -14.039863096088  -0.022373943628 
 E6   /kcal   :  -6.592643113 
 E8   /kcal   :  -7.447219983 
 % E8         :  53.043394598 

-------------------------   ----------------
Dispersion correction           -0.022373944
-------------------------   ----------------


-------------------------   --------------------
FINAL SINGLE POINT ENERGY     -2145.253102575544
-------------------------   --------------------


                            ***************************************
                            *     ORCA property calculations      *
                            ***************************************

                                    ---------------------
                                    Active property flags
                                    ---------------------
   (+) Dipole Moment
   (+) Quadrupole Moment


------------------------------------------------------------------------------
                       ORCA ELECTRIC PROPERTIES CALCULATION
------------------------------------------------------------------------------

Dipole Moment Calculation                       ... on
Quadrupole Moment Calculation                   ... on
Polarizability Calculation                      ... off
GBWName                                         ... total_job2.gbw
Electron density file                           ... total_job2.scfp.tmp

-------------
DIPOLE MOMENT
-------------
                                X             Y             Z
Electronic contribution:     -2.01310      -1.84585       7.97326
Nuclear contribution   :      2.34969       1.67652      -8.59222
                        -----------------------------------------
Total Dipole Moment    :      0.33659      -0.16933      -0.61896
                        -----------------------------------------
Magnitude (a.u.)       :      0.72462
Magnitude (Debye)      :      1.84184


------------------------
QUADRUPOLE MOMENT (A.U.)
------------------------

                XX           YY           ZZ           XY           XZ           YZ
  NUC     24822.58939    779.47357   2707.32693  -1500.43725   1174.27364   -541.57136
  EL     -24915.03040   -934.15541  -2854.17851   1495.42662  -1152.44422    540.49584
  TOT       -92.44102   -154.68183   -146.85158     -5.01063     21.82942     -1.07553

--------------------------------------------------------------------------
[[50475,1],1]: A high-performance Open MPI point-to-point messaging module
was unable to find any relevant network interfaces:

Module: OpenFabrics (openib)
  Host: cx1-105-9-2

Another transport will be used instead, although this may result in
lower performance.
--------------------------------------------------------------------------

Timings for individual modules:

Sum of individual times         ...      195.066 sec (=   3.251 min)
GTO integral calculation        ...        6.309 sec (=   0.105 min)   3.2 %
SCF iterations                  ...      149.494 sec (=   2.492 min)  76.6 %
CIS module                      ...       39.263 sec (=   0.654 min)  20.1 %



                             ****ORCA TERMINATED NORMALLY****
TOTAL RUN TIME: 0 days 0 hours 12 minutes 15 seconds 337 msec
