   45
Geometry Step: 1349
    C     -5.10611769     -2.36743971      1.08663598      4.11266838
    C     -4.16930848     -1.42270710      0.67594069      4.08166764
    C     -4.59427218     -0.10739967      0.40697190      4.03426132
    C     -5.96992497      0.20898541      0.58967709      3.86574404
    C     -6.91694098     -0.74270874      0.99787228      4.16297381
    C     -6.46400942     -2.03680302      1.24003157      4.06669232
    C     -3.93788944      1.12524822     -0.00155524      4.04818715
    C     -4.95397646      2.12639695     -0.01676956      3.86531434
    N     -6.16482368      1.55251942      0.32098820      5.17404913
    C     -4.69770886      3.47312234     -0.31461845      4.16054041
    C     -3.37990896      3.82864111     -0.59255321      4.07058341
    C     -2.36061120      2.86742686     -0.59280589      4.13619654
    C     -2.60775735      1.50851956     -0.32170021      3.99320696
    H     -1.34713465      3.17448537     -0.83672265      0.91780856
    H     -7.04614760      2.04567986      0.39534160      0.78365764
    H     -3.13633662      4.86225697     -0.82069256      0.91671904
    H     -3.12767544     -1.70882663      0.57377857      0.90563693
    H     -7.96252640     -0.47592182      1.12583962      0.91727466
    H     -7.16788485     -2.80091465      1.55862847      0.92058017
    H     -4.78234633     -3.38352892      1.29387503      0.91793646
    C      4.06503816     -1.07533291     -0.34226177      3.85633604
    N      3.55721817     -2.27255184     -0.66935377      5.14098961
    O      2.21088162     -2.12409813     -0.74876165      6.04914776
    C      1.86808100     -0.85452954     -0.47699128      3.77207738
    C      3.00726007     -0.12398316     -0.20668808      4.27614615
    C      0.45902851     -0.48739675     -0.50894479      3.88486033
    N     -0.50252295     -1.37455387     -0.80396716      5.16016176
    O     -1.68122498     -0.70197284     -0.73937359      6.05549913
    C     -1.47487950      0.58081582     -0.40725687      3.75515647
    C     -0.11583837      0.79070905     -0.25411371      4.27757125
    H      0.38919811      1.70525593      0.02044512      0.88590899
    H      3.06805996      0.92442364      0.04714305      0.88982640
    C      5.50399396     -0.84965870     -0.16618130      3.99230822
    C      5.99185006      0.39632943      0.17033516      4.11504996
    C      7.38670721      0.65521460      0.35053476      4.07760520
    C      8.32790545     -0.32565198      0.19862405      4.12662979
    C      7.90345569     -1.65681885     -0.15261387      3.81281168
    C      6.46546572     -1.93204497     -0.34036525      3.83407993
    N      8.75252597     -2.65864296     -0.31728107      5.25784077
    S      7.71353649     -4.15654221     -0.76034041      5.85776242
    N      6.11816541     -3.16457257     -0.66161512      5.22848110
    H      5.29739379      1.22164399      0.30647790      0.91423792
    H      7.69273515      1.66418477      0.61543815      0.91380961
    H     -5.49560373      4.21024781     -0.31824545      0.91404178
    H      9.38497058     -0.11760560      0.33799371      0.89996143
