   66
Geometry Step: 3166
    C      6.80699810      2.66331192      1.45529921      4.11225399
    C      6.53468701      1.38333102      0.97898343      4.08574624
    C      7.57171675      0.63924981      0.38619456      4.03476275
    C      8.87424658      1.21012304      0.33166030      3.86495342
    C      9.14913485      2.50260245      0.80419154      4.16188124
    C      8.09392632      3.22193465      1.35973175      4.06784050
    C      7.68238081     -0.69539932     -0.17762771      4.05366285
    C      9.05715776     -0.87456546     -0.50644863      3.86486514
    N      9.74864177      0.28790470     -0.21733216      5.17478969
    C      9.56466139     -2.07864710     -1.01782196      4.16198784
    C      8.66816660     -3.13187572     -1.18666168      4.07080457
    C      7.30718717     -2.97921212     -0.88656564      4.13022650
    C      6.78154756     -1.76742125     -0.40346157      3.99094680
    H      6.62965430     -3.81127504     -1.05600125      0.91151230
    H     10.74428573      0.42377889     -0.34277456      0.78372737
    H      9.02380617     -4.08448560     -1.56888487      0.91663830
    H      5.53732666      0.96855917      1.08778563      0.91328001
    H     10.15018357      2.92150023      0.74715172      0.91710556
    H      8.26959993      4.22552243      1.73752606      0.92050741
    H      6.01069408      3.24287934      1.91367087      0.91781340
    C     -0.28839435     -0.03117661     -0.23465567      3.85110325
    N      0.44662759      1.03135390     -0.59617813      5.18410757
    O      1.74750630      0.63341392     -0.58837670      6.06709101
    C      1.83216411     -0.65776540     -0.22821719      3.77411141
    C      0.56435461     -1.14764381      0.01388009      4.26443419
    C      3.15425192     -1.26469721     -0.16140217      3.88522288
    N      3.33164826     -2.54453059      0.19771130      5.17126718
    O      4.66947569     -2.77835778      0.14679736      6.06013866
    C      5.32816629     -1.66460515     -0.21696908      3.76072540
    C      4.41182154     -0.65410999     -0.43934691      4.26713245
    H      4.59594536      0.34917263     -0.79308191      0.87848667
    H      0.29941449     -2.14922856      0.31948999      0.88577223
    C     -5.99358238      2.32559731      1.46912792      4.15602588
    C     -6.61200587      1.47248163      0.53305257      3.83563209
    C     -7.86002913      1.84088032     -0.00841541      4.15651348
    C     -8.46923159      3.03063716      0.38361993      4.06327800
    C     -7.84956655      3.87511711      1.30812981      4.11028169
    C     -6.61051546      3.51658212      1.84489795      4.06293315
    N     -5.98723681      0.25834550      0.14155789      5.09609268
    C     -6.77969682     -0.88209763     -0.15656007      3.83548980
    C     -6.38021029     -1.78833357     -1.15942394      4.15628063
    C     -7.16056355     -2.90670145     -1.44322410      4.06310345
    C     -8.34923107     -3.13902240     -0.74677462      4.11041611
    C     -8.75236989     -2.24119958      0.24482090      4.06325221
    C     -7.97769777     -1.12330797      0.54569242      4.15660315
    C     -4.57386824      0.18484417      0.04895558      3.84029579
    C     -3.89468145     -1.01158719      0.35840848      4.15699762
    C     -2.50906175     -1.07910726      0.26206545      4.09039040
    C     -1.75194966      0.03798072     -0.13621356      3.98795444
    C     -2.43563487      1.23079862     -0.44036205      4.08025006
    C     -3.82034459      1.30731406     -0.35462929      4.15792603
    H     -4.45772604     -1.88271788      0.68109335      0.90770801
    H     -2.00525957     -2.00977958      0.51048973      0.91883227
    H     -1.86821675      2.10133195     -0.75781552      0.90885640
    H     -4.32862508      2.23371781     -0.60706467      0.90762115
    H     -5.46437485     -1.60812849     -1.71516951      0.90855731
    H     -6.84344388     -3.59642591     -2.22116631      0.92115619
    H     -8.95542096     -4.01088967     -0.97465259      0.91898471
    H     -9.67248446     -2.41809332      0.79584253      0.92144034
    H     -8.29206024     -0.43716339      1.32703597      0.90893987
    H     -8.34274075      1.19634867     -0.73758704      0.90899134
    H     -9.43014584      3.30541620     -0.04377817      0.92146095
    H     -6.12493957      4.16459220      2.56998543      0.92104085
    H     -5.03644706      2.04811524      1.90152426      0.90848101
    H     10.61788463     -2.18833097     -1.26026424      0.91431447
    H     -8.32750680      4.80334406      1.60733490      0.91899968
