
                                 *****************
                                 * O   R   C   A *
                                 *****************

           --- An Ab Initio, DFT and Semiempirical electronic structure package ---

                  #######################################################
                  #                        -***-                        #
                  #  Department of molecular theory and spectroscopy    #
                  #              Directorship: Frank Neese              #
                  # Max Planck Institute for Chemical Energy Conversion #
                  #                  D-45470 Muelheim/Ruhr              #
                  #                       Germany                       #
                  #                                                     #
                  #                  All rights reserved                #
                  #                        -***-                        #
                  #######################################################


                         Program Version 4.0.0 -  RELEASE  -


 With contributions from (in alphabetic order):
   Daniel Aravena         : Magnetic Properties
   Michael Atanasov       : Ab Initio Ligand Field Theory
   Ute Becker             : Parallelization
   Martin Brehm           : Molecular dynamics
   Dmytro Bykov           : SCF Hessian
   Vijay G. Chilkuri      : MRCI spin determinant printing
   Dipayan Datta          : RHF DLPNO-CCSD density
   Achintya Kumar Dutta   : EOM-CC, STEOM-CC
   Dmitry Ganyushin       : Spin-Orbit,Spin-Spin,Magnetic field MRCI
   Yang Guo               : DLPNO-NEVPT2, CIM, IAO-localization
   Andreas Hansen         : Spin unrestricted coupled pair/coupled cluster methods
   Lee Huntington         : MR-EOM, pCC
   Robert Izsak           : Overlap fitted RIJCOSX, COSX-SCS-MP3, EOM
   Christian Kollmar      : KDIIS, OOCD, Brueckner-CCSD(T), CCSD density
   Simone Kossmann        : Meta GGA functionals, TD-DFT gradient, OOMP2, MP2 Hessian
   Martin Krupicka        : AUTO-CI
   Dagmar Lenk            : GEPOL surface
   Dimitrios Liakos       : Extrapolation schemes; parallel MDCI
   Dimitrios Manganas     : ROCIS; embedding schemes
   Dimitrios Pantazis     : SARC Basis sets
   Taras Petrenko         : DFT Hessian,TD-DFT gradient, ASA, ECA, R-Raman, ABS, FL, XAS/XES, NRVS
   Peter Pinski           : DLPNO-MP2
   Christoph Reimann      : Effective Core Potentials
   Marius Retegan         : Local ZFS, SOC
   Christoph Riplinger    : Optimizer, TS searches, QM/MM, DLPNO-CCSD(T), (RO)-DLPNO pert. Triples
   Tobias Risthaus        : Range-separated hybrids, TD-DFT gradient, RPA, STAB
   Michael Roemelt        : Restricted open shell CIS
   Masaaki Saitow         : Open-shell DLPNO
   Barbara Sandhoefer     : DKH picture change effects
   Kantharuban Sivalingam : CASSCF convergence, NEVPT2, FIC-MRCI
   Georgi Stoychev        : AutoAux
   Boris Wezisla          : Elementary symmetry handling
   Frank Wennmohs         : Technical directorship


 We gratefully acknowledge several colleagues who have allowed us to
 interface, adapt or use parts of their codes:
   Stefan Grimme, W. Hujo, H. Kruse,             : VdW corrections, initial TS optimization,
                  C. Bannwarth                     DFT functionals, gCP, sTDA/sTD-DF
   Ed Valeev                                     : LibInt (2-el integral package), F12 methods
   Garnet Chan, S. Sharma, J. Yang, R. Olivares  : DMRG
   Ulf Ekstrom                                   : XCFun DFT Library
   Mihaly Kallay                                 : mrcc  (arbitrary order and MRCC methods)
   Jiri Pittner, Ondrej Demel                    : Mk-CCSD
   Frank Weinhold                                : gennbo (NPA and NBO analysis)
   Christopher J. Cramer and Donald G. Truhlar   : smd solvation model


 Your calculation uses the libint2 library for the computation of 2-el integrals
 For citations please refer to: http://libint.valeyev.net

 This ORCA versions uses:
   CBLAS   interface :  Fast vector & matrix operations
   LAPACKE interface :  Fast linear algebra routines
   SCALAPACK package :  Parallel linear algebra routines


Your calculation utilizes the atom-pairwise dispersion correction
with the zero-damping scheme (D30)
Cite in your paper:
S.Grimme, J.Antony, S.Ehrlich and H.Krieg, J.Chem.Phys., 132, (2010), 154104 
   

XCFun DFT library Copyright 2009-2010 Ulf Ekstrom and contributors.
See http://admol.org/xcfun for more information. This is free soft-
ware; see the source code for copying conditions. There is ABSOLUTELY
NO WARRANTY; not even for MERCHANTABILITY or FITNESS FOR A PARTICULAR
PURPOSE. For details see the documentation. Scientific users of this 
library should cite U. Ekstrom, L. Visscher, R. Bast, A. J. Thorvald-
sen and K. Ruud; J.Chem.Theor.Comp. 2010, DOI: 10.1021/ct100117s
XCFun Version 0.99 
Your calculation utilizes the basis: def2-TZVP
   F. Weigend and R. Ahlrichs, Phys. Chem. Chem. Phys. 7, 3297 (2005).

Your calculation utilizes the auxiliary basis: def2/J
   F. Weigend, Phys. Chem. Chem. Phys. 8, 1057 (2006).

================================================================================
                                        WARNINGS
                       Please study these warnings very carefully!
================================================================================

Warning: TCutStore was < 0. Adjusted to Thresh (uncritical)
INFO   : Checking CIS options ...

WARNING: CIS/ROCIS methods need fully converged wavefunctions
  ===> : Setting SCFConvForced true
         You can overwrite this default with %scf ConvForced false 


INFO   : the flag for use of LIBINT has been found!

Your calculation utilizes the atom-pairwise dispersion correction
with the zero-damping scheme (D30)
Cite in your paper:
S.Grimme, J.Antony, S.Ehrlich and H.Krieg, J.Chem.Phys., 132, (2010), 154104 
   

XCFun DFT library Copyright 2009-2010 Ulf Ekstrom and contributors.
See http://admol.org/xcfun for more information. This is free soft-
ware; see the source code for copying conditions. There is ABSOLUTELY
NO WARRANTY; not even for MERCHANTABILITY or FITNESS FOR A PARTICULAR
PURPOSE. For details see the documentation. Scientific users of this 
library should cite U. Ekstrom, L. Visscher, R. Bast, A. J. Thorvald-
sen and K. Ruud; J.Chem.Theor.Comp. 2010, DOI: 10.1021/ct100117s
XCFun Version 0.99 
Your calculation utilizes the basis: def2-TZVP
   F. Weigend and R. Ahlrichs, Phys. Chem. Chem. Phys. 7, 3297 (2005).

Your calculation utilizes the auxiliary basis: def2/J
   F. Weigend, Phys. Chem. Chem. Phys. 8, 1057 (2006).

================================================================================
                                        WARNINGS
                       Please study these warnings very carefully!
================================================================================

INFO   : Checking CIS options ...

INFO   : the flag for use of LIBINT has been found!

================================================================================
                                       INPUT FILE
================================================================================
NAME = total.inp
|  1> # 
|  2> !wB97X-D3 def2-TZVP def2/J RIJCOSX Grid5 FinalGrid6 TightSCF
|  3> %pal 
|  4>  nprocs 24
|  5> end
|  6> %tddft
|  7>   Mode sTDDFT
|  8>   nroots 2
|  9>   Ethresh 10.0
| 10>   maxcore 5000
| 11>   triplets true
| 12> end
| 13> * xyz 0 1 
| 14> C -4.71871310 2.18743154 1.85691998
| 15> C -4.13694754 1.13502269 1.15329629
| 16> C -4.94807009 0.32248405 0.34034116
| 17> C -6.34765499 0.58044440 0.30559236
| 18> C -6.93587922 1.64252445 1.00908264
| 19> C -6.09822833 2.44662129 1.77878321
| 20> C -4.72241189 -0.84949666 -0.49043381
| 21> C -6.00679038 -1.26184049 -0.94847360
| 22> N -6.96286741 -0.37672925 -0.48228034
| 23> C -6.20502868 -2.41199018 -1.72771844
| 24> C -5.07954967 -3.17140709 -2.04086007
| 25> C -3.80092606 -2.77735929 -1.62198516
| 26> C -3.58456784 -1.60922129 -0.86717448
| 27> H -2.94294696 -3.37578680 -1.91669664
| 28> H -7.95876588 -0.44853392 -0.65064892
| 29> H -5.18866960 -4.07554976 -2.63347480
| 30> H -3.07219132 0.94542511 1.25312076
| 31> H -8.00643822 1.82370827 0.96293094
| 32> H -6.51849967 3.27757238 2.33904348
| 33> H -4.09607983 2.81883887 2.48489504
| 34> N 2.47785406 0.06978329 0.08228739
| 35> C 1.25404753 0.61273276 -0.27548816
| 36> C 1.28023825 1.96923086 -0.55402064
| 37> S 2.89396865 2.59406915 -0.36356885
| 38> C 3.45854709 0.95604097 0.09304057
| 39> C 0.07685892 -0.24355074 -0.33010698
| 40> S -1.52898600 0.37613731 -0.78529457
| 41> C -2.19487990 -1.24015210 -0.55321232
| 42> C -1.17280085 -2.09586626 -0.18672464
| 43> N 0.07682732 -1.53664222 -0.04809689
| 44> H 0.44462302 2.59048886 -0.85083703
| 45> H -1.31316517 -3.15463474 0.02269471
| 46> C 7.45070569 3.59722020 0.20054318
| 47> S 5.73060244 3.32248324 -0.05758747
| 48> C 5.87886295 1.61794232 0.39562382
| 49> C 7.23285700 1.32514885 0.72614849
| 50> C 8.09987432 2.47337321 0.60459784
| 51> C 7.59971841 0.02847123 1.11894479
| 52> C 6.59782666 -0.93831899 1.16960543
| 53> C 5.23703598 -0.66681156 0.84154620
| 54> C 4.84891774 0.64837206 0.43857314
| 55> S 6.82394122 -2.62508655 1.63593424
| 56> C 5.11400281 -2.94929155 1.39315406
| 57> C 4.42031474 -1.85036208 0.98485034
| 58> H 9.16322562 2.43656166 0.81598653
| 59> H 3.35481080 -1.86834140 0.78707181
| 60> H 4.70527214 -3.93741998 1.56461103
| 61> H 7.88712738 4.57509463 0.03988116
| 62> H -7.19656173 -2.70312937 -2.06247597
| 63> H 8.62965958 -0.20580136 1.37335920
| 64> *
| 65> $new_job
| 66> # 
| 67> !wB97X-D3 def2-TZVP def2/J RIJCOSX Grid5 FinalGrid6 TightSCF
| 68> %pal 
| 69>  nprocs 24
| 70> end
| 71> %elprop
| 72>    dipole     true
| 73>    quadrupole true
| 74> end
| 75> %tddft
| 76>   Mode sTDDFT
| 77>   nroots 2
| 78>   Ethresh 10.0
| 79>   maxcore 5000
| 80> end
| 81> * xyz 0 1 
| 82> C -4.71871310 2.18743154 1.85691998
| 83> C -4.13694754 1.13502269 1.15329629
| 84> C -4.94807009 0.32248405 0.34034116
| 85> C -6.34765499 0.58044440 0.30559236
| 86> C -6.93587922 1.64252445 1.00908264
| 87> C -6.09822833 2.44662129 1.77878321
| 88> C -4.72241189 -0.84949666 -0.49043381
| 89> C -6.00679038 -1.26184049 -0.94847360
| 90> N -6.96286741 -0.37672925 -0.48228034
| 91> C -6.20502868 -2.41199018 -1.72771844
| 92> C -5.07954967 -3.17140709 -2.04086007
| 93> C -3.80092606 -2.77735929 -1.62198516
| 94> C -3.58456784 -1.60922129 -0.86717448
| 95> H -2.94294696 -3.37578680 -1.91669664
| 96> H -7.95876588 -0.44853392 -0.65064892
| 97> H -5.18866960 -4.07554976 -2.63347480
| 98> H -3.07219132 0.94542511 1.25312076
| 99> H -8.00643822 1.82370827 0.96293094
|100> H -6.51849967 3.27757238 2.33904348
|101> H -4.09607983 2.81883887 2.48489504
|102> N 2.47785406 0.06978329 0.08228739
|103> C 1.25404753 0.61273276 -0.27548816
|104> C 1.28023825 1.96923086 -0.55402064
|105> S 2.89396865 2.59406915 -0.36356885
|106> C 3.45854709 0.95604097 0.09304057
|107> C 0.07685892 -0.24355074 -0.33010698
|108> S -1.52898600 0.37613731 -0.78529457
|109> C -2.19487990 -1.24015210 -0.55321232
|110> C -1.17280085 -2.09586626 -0.18672464
|111> N 0.07682732 -1.53664222 -0.04809689
|112> H 0.44462302 2.59048886 -0.85083703
|113> H -1.31316517 -3.15463474 0.02269471
|114> C 7.45070569 3.59722020 0.20054318
|115> S 5.73060244 3.32248324 -0.05758747
|116> C 5.87886295 1.61794232 0.39562382
|117> C 7.23285700 1.32514885 0.72614849
|118> C 8.09987432 2.47337321 0.60459784
|119> C 7.59971841 0.02847123 1.11894479
|120> C 6.59782666 -0.93831899 1.16960543
|121> C 5.23703598 -0.66681156 0.84154620
|122> C 4.84891774 0.64837206 0.43857314
|123> S 6.82394122 -2.62508655 1.63593424
|124> C 5.11400281 -2.94929155 1.39315406
|125> C 4.42031474 -1.85036208 0.98485034
|126> H 9.16322562 2.43656166 0.81598653
|127> H 3.35481080 -1.86834140 0.78707181
|128> H 4.70527214 -3.93741998 1.56461103
|129> H 7.88712738 4.57509463 0.03988116
|130> H -7.19656173 -2.70312937 -2.06247597
|131> H 8.62965958 -0.20580136 1.37335920
|132> *
|133> 
|134>                          ****END OF INPUT****
================================================================================


                 $$$$$$$$$$$$$$$$$$$$$$$$$$$$$$$$$$$$$$$$$$$$$$ 
                 $ THERE ARE  2 JOBS TO BE PROCESSED THIS RUN $
                 $$$$$$$$$$$$$$$$$$$$$$$$$$$$$$$$$$$$$$$$$$$$$$ 




                 $$$$$$$$$$$$$$$$  JOB NUMBER  1 $$$$$$$$$$$$$$


                       ****************************
                       * Single Point Calculation *
                       ****************************

---------------------------------
CARTESIAN COORDINATES (ANGSTROEM)
---------------------------------
  C     -4.718713    2.187432    1.856920
  C     -4.136948    1.135023    1.153296
  C     -4.948070    0.322484    0.340341
  C     -6.347655    0.580444    0.305592
  C     -6.935879    1.642524    1.009083
  C     -6.098228    2.446621    1.778783
  C     -4.722412   -0.849497   -0.490434
  C     -6.006790   -1.261840   -0.948474
  N     -6.962867   -0.376729   -0.482280
  C     -6.205029   -2.411990   -1.727718
  C     -5.079550   -3.171407   -2.040860
  C     -3.800926   -2.777359   -1.621985
  C     -3.584568   -1.609221   -0.867174
  H     -2.942947   -3.375787   -1.916697
  H     -7.958766   -0.448534   -0.650649
  H     -5.188670   -4.075550   -2.633475
  H     -3.072191    0.945425    1.253121
  H     -8.006438    1.823708    0.962931
  H     -6.518500    3.277572    2.339043
  H     -4.096080    2.818839    2.484895
  N      2.477854    0.069783    0.082287
  C      1.254048    0.612733   -0.275488
  C      1.280238    1.969231   -0.554021
  S      2.893969    2.594069   -0.363569
  C      3.458547    0.956041    0.093041
  C      0.076859   -0.243551   -0.330107
  S     -1.528986    0.376137   -0.785295
  C     -2.194880   -1.240152   -0.553212
  C     -1.172801   -2.095866   -0.186725
  N      0.076827   -1.536642   -0.048097
  H      0.444623    2.590489   -0.850837
  H     -1.313165   -3.154635    0.022695
  C      7.450706    3.597220    0.200543
  S      5.730602    3.322483   -0.057587
  C      5.878863    1.617942    0.395624
  C      7.232857    1.325149    0.726148
  C      8.099874    2.473373    0.604598
  C      7.599718    0.028471    1.118945
  C      6.597827   -0.938319    1.169605
  C      5.237036   -0.666812    0.841546
  C      4.848918    0.648372    0.438573
  S      6.823941   -2.625087    1.635934
  C      5.114003   -2.949292    1.393154
  C      4.420315   -1.850362    0.984850
  H      9.163226    2.436562    0.815987
  H      3.354811   -1.868341    0.787072
  H      4.705272   -3.937420    1.564611
  H      7.887127    4.575095    0.039881
  H     -7.196562   -2.703129   -2.062476
  H      8.629660   -0.205801    1.373359

----------------------------
CARTESIAN COORDINATES (A.U.)
----------------------------
  NO LB      ZA    FRAG     MASS         X           Y           Z
   0 C     6.0000    0    12.011   -8.917075    4.133647    3.509070
   1 C     6.0000    0    12.011   -7.817698    2.144882    2.179414
   2 C     6.0000    0    12.011   -9.350497    0.609407    0.643152
   3 C     6.0000    0    12.011  -11.995330    1.096881    0.577486
   4 C     6.0000    0    12.011  -13.106912    3.103921    1.906890
   5 C     6.0000    0    12.011  -11.523981    4.623444    3.361413
   6 C     6.0000    0    12.011   -8.924065   -1.605316   -0.926786
   7 C     6.0000    0    12.011  -11.351189   -2.384533   -1.792355
   8 N     7.0000    0    14.007  -13.157913   -0.711915   -0.911378
   9 C     6.0000    0    12.011  -11.725805   -4.558001   -3.264915
  10 C     6.0000    0    12.011   -9.598958   -5.993091   -3.856667
  11 C     6.0000    0    12.011   -7.182709   -5.248448   -3.065108
  12 C     6.0000    0    12.011   -6.773852   -3.040988   -1.638722
  13 H     1.0000    0     1.008   -5.561364   -6.379313   -3.622032
  14 H     1.0000    0     1.008  -15.039888   -0.847606   -1.229548
  15 H     1.0000    0     1.008   -9.805165   -7.701673   -4.976546
  16 H     1.0000    0     1.008   -5.805600    1.786595    2.368055
  17 H     1.0000    0     1.008  -15.129976    3.446309    1.819676
  18 H     1.0000    0     1.008  -12.318179    6.193714    4.420152
  19 H     1.0000    0     1.008   -7.740469    5.326833    4.695771
  20 N     7.0000    0    14.007    4.682466    0.131871    0.155501
  21 C     6.0000    0    12.011    2.369806    1.157897   -0.520597
  22 C     6.0000    0    12.011    2.419300    3.721307   -1.046947
  23 S    16.0000    0    32.060    5.468808    4.902080   -0.687046
  24 C     6.0000    0    12.011    6.535707    1.806656    0.175821
  25 C     6.0000    0    12.011    0.145242   -0.460244   -0.623812
  26 S    16.0000    0    32.060   -2.889365    0.710797   -1.483992
  27 C     6.0000    0    12.011   -4.147722   -2.343548   -1.045420
  28 C     6.0000    0    12.011   -2.216272   -3.960613   -0.352858
  29 N     7.0000    0    14.007    0.145183   -2.903833   -0.090890
  30 H     1.0000    0     1.008    0.840216    4.895314   -1.607849
  31 H     1.0000    0     1.008   -2.481523   -5.961396    0.042887
  32 C     6.0000    0    12.011   14.079793    6.797761    0.378972
  33 S    16.0000    0    32.060   10.829269    6.278583   -0.108825
  34 C     6.0000    0    12.011   11.109441    3.057468    0.747621
  35 C     6.0000    0    12.011   13.668119    2.504168    1.372222
  36 C     6.0000    0    12.011   15.306544    4.673998    1.142524
  37 C     6.0000    0    12.011   14.361386    0.053803    2.114499
  38 C     6.0000    0    12.011   12.468085   -1.773166    2.210234
  39 C     6.0000    0    12.011    9.896564   -1.260091    1.590292
  40 C     6.0000    0    12.011    9.163127    1.225246    0.828783
  41 S    16.0000    0    32.060   12.895380   -4.960695    3.091468
  42 C     6.0000    0    12.011    9.664065   -5.573353    2.632680
  43 C     6.0000    0    12.011    8.353184   -3.496678    1.861097
  44 H     1.0000    0     1.008   17.315987    4.604434    1.541991
  45 H     1.0000    0     1.008    6.339674   -3.530654    1.487350
  46 H     1.0000    0     1.008    8.891676   -7.440645    2.956686
  47 H     1.0000    0     1.008   14.904511    8.645676    0.075364
  48 H     1.0000    0     1.008  -13.599531   -5.108174   -3.897515
  49 H     1.0000    0     1.008   16.307693   -0.388908    2.595273

--------------------------------
INTERNAL COORDINATES (ANGSTROEM)
--------------------------------
 C      0   0   0     0.000000000000     0.00000000     0.00000000
 C      1   0   0     1.393234313204     0.00000000     0.00000000
 C      2   1   0     1.406781744268   119.16854786     0.00000000
 C      3   2   1     1.423583124929   118.44432790   357.80786083
 C      4   3   2     1.403182223170   122.48360491     2.51103178
 C      5   4   3     1.393079218521   117.50545924   359.00170984
 C      3   2   1     1.454182745950   134.92420101   181.86102861
 C      7   3   2     1.424589761629   106.08467439   174.47731849
 N      8   7   3     1.383777926597   109.23568976     2.31577452
 C      8   7   3     1.403340747524   122.89621607   183.40123748
 C     10   8   7     1.393368122781   117.21806792     0.62904908
 C     11  10   8     1.402001496063   121.08630924   358.32805932
 C     12  11  10     1.407514273124   122.25387481     0.20547914
 H     12  11  10     1.086783546621   118.96067299   182.24086522
 H      9   8   7     1.012579701512   125.32117349   181.07940674
 H     11  10   8     1.086541920522   119.66864885   179.37116693
 H      2   1   3     1.086102193710   119.65678079   180.99532848
 H      5   4   3     1.086763142789   121.18857824   179.63758103
 H      6   5   4     1.086737909221   119.58139909   180.11823559
 H      1   2   3     1.086600239863   119.44156166   180.09918645
 N     17   2   1     5.739390481340   162.91843995   234.26370365
 C     21  17   2     1.385821018033    30.56356724    25.53206492
 C     22  21  17     1.385046349958   114.76719645   125.88087941
 S     23  22  21     1.740925207138   110.30650919     0.02852167
 C     21  17   2     1.321865017818   127.84125063    96.09105849
 C     22  21  17     1.456700954686   119.53930494   305.93110701
 S     26  22  21     1.780434477450   122.26708289   180.19029089
 C     13  12  11     1.471739404752   117.88317110   183.88844810
 C     28  13  12     1.382463571913   126.82910393   319.53080079
 N     26  22  21     1.323486028452   124.49636595     0.52660971
 H     23  22  21     1.082734632560   127.04873883   179.99237279
 H     29  28  13     1.088370020133   123.90405002   352.76593690
 C     24  23  22     4.699828386571   171.28530446    10.32957542
 S     33  24  23     1.760927886178     3.64954927   158.42750785
 C     34  33  24     1.769983446296    91.77034906   350.63015932
 C     35  34  33     1.424175010660   109.69713864     0.00000000
 C     33  24  23     1.359305754926   108.79847410   347.55407560
 C     36  35  34     1.403655612196   120.22166153   180.01324265
 C     38  36  35     1.393211006507   117.59810759     0.00000000
 C     39  38  36     1.425864796433   123.07956235     0.09078392
 C     35  34  33     1.415167222899   127.34440238   180.15780511
 S     39  38  36     1.764589231166   125.50590384   180.11613416
 C     42  39  38     1.757253670879    90.86849900   179.89822914
 C     43  42  39     1.362189798178   112.83667732     0.03954136
 H     37  33  24     1.084783967288   123.65003448   180.63743353
 H     44  43  42     1.083853425991   122.81558071   179.99056904
 H     43  42  39     1.082984786289   120.91138737   180.05150085
 H     33  24  23     1.082827122407   124.45198593   168.20524661
 H     10   8   7     1.086260751886   121.31406617   179.94269850
 H     38  36  35     1.086457156128   120.82989559   180.00682958

---------------------------
INTERNAL COORDINATES (A.U.)
---------------------------
 C      0   0   0     0.000000000000     0.00000000     0.00000000
 C      1   0   0     2.632831292338     0.00000000     0.00000000
 C      2   1   0     2.658432226866   119.16854786     0.00000000
 C      3   2   1     2.690182234987   118.44432790   357.80786083
 C      4   3   2     2.651630117779   122.48360491     2.51103178
 C      5   4   3     2.632538205861   117.50545924   359.00170984
 C      3   2   1     2.748007138519   134.92420101   181.86102861
 C      7   3   2     2.692084502666   106.08467439   174.47731849
 N      8   7   3     2.614961311434   109.23568976     2.31577452
 C      8   7   3     2.651929685392   122.89621607   183.40123748
 C     10   8   7     2.633084155793   117.21806792     0.62904908
 C     11  10   8     2.649398866906   121.08630924   358.32805932
 C     12  11  10     2.659816505789   122.25387481     0.20547914
 H     12  11  10     2.053723269965   118.96067299   182.24086522
 H      9   8   7     1.913498324625   125.32117349   181.07940674
 H     11  10   8     2.053266662811   119.66864885   179.37116693
 H      2   1   3     2.052435699563   119.65678079   180.99532848
 H      5   4   3     2.053684712310   121.18857824   179.63758103
 H      6   5   4     2.053637027778   119.58139909   180.11823559
 H      1   2   3     2.053376870394   119.44156166   180.09918645
 N     17   2   1    10.845876185367   162.91843995   234.26370365
 C     21  17   2     2.618822194714    30.56356724    25.53206492
 C     22  21  17     2.617358284208   114.76719645   125.88087941
 S     23  22  21     3.289871861131   110.30650919     0.02852167
 C     21  17   2     2.497962869686   127.84125063    96.09105849
 C     22  21  17     2.752765863379   119.53930494   305.93110701
 S     26  22  21     3.364533561772   122.26708289   180.19029089
 C     13  12  11     2.781184415482   117.88317110   183.88844810
 C     28  13  12     2.612477541037   126.82910393   319.53080079
 N     26  22  21     2.501026135846   124.49636595     0.52660971
 H     23  22  21     2.046071931250   127.04873883   179.99237279
 H     29  28  13     2.056721270422   123.90405002   352.76593690
 C     24  23  22     8.881388527047   171.28530446    10.32957542
 S     33  24  23     3.327671446462     3.64954927   158.42750785
 C     34  33  24     3.344783975074    91.77034906   350.63015932
 C     35  34  33     2.691300736922   109.69713864     0.00000000
 C     33  24  23     2.568715609074   108.79847410   347.55407560
 C     36  35  34     2.652524693392   120.22166153   180.01324265
 C     38  36  35     2.632787249062   117.59810759     0.00000000
 C     39  38  36     2.694493969259   123.07956235     0.09078392
 C     35  34  33     2.674278484980   127.34440238   180.15780511
 S     39  38  36     3.334590385771   125.50590384   180.11613416
 C     42  39  38     3.320728185790    90.86849900   179.89822914
 C     43  42  39     2.574165660978   112.83667732     0.03954136
 H     37  33  24     2.049944612643   123.65003448   180.63743353
 H     44  43  42     2.048186144435   122.81558071   179.99056904
 H     43  42  39     2.046544653290   120.91138737   180.05150085
 H     33  24  23     2.046246711732   124.45198593   168.20524661
 H     10   8   7     2.052735331092   121.31406617   179.94269850
 H     38  36  35     2.053106481321   120.82989559   180.00682958

---------------------
BASIS SET INFORMATION
---------------------
There are 4 groups of distinct atoms

 Group   1 Type C   : 11s6p2d1f contracted to 5s3p2d1f pattern {62111/411/11/1}
 Group   2 Type N   : 11s6p2d1f contracted to 5s3p2d1f pattern {62111/411/11/1}
 Group   3 Type H   : 5s1p contracted to 3s1p pattern {311/1}
 Group   4 Type S   : 14s9p3d1f contracted to 5s5p2d1f pattern {73211/51111/21/1}

Atom   0C    basis set group =>   1
Atom   1C    basis set group =>   1
Atom   2C    basis set group =>   1
Atom   3C    basis set group =>   1
Atom   4C    basis set group =>   1
Atom   5C    basis set group =>   1
Atom   6C    basis set group =>   1
Atom   7C    basis set group =>   1
Atom   8N    basis set group =>   2
Atom   9C    basis set group =>   1
Atom  10C    basis set group =>   1
Atom  11C    basis set group =>   1
Atom  12C    basis set group =>   1
Atom  13H    basis set group =>   3
Atom  14H    basis set group =>   3
Atom  15H    basis set group =>   3
Atom  16H    basis set group =>   3
Atom  17H    basis set group =>   3
Atom  18H    basis set group =>   3
Atom  19H    basis set group =>   3
Atom  20N    basis set group =>   2
Atom  21C    basis set group =>   1
Atom  22C    basis set group =>   1
Atom  23S    basis set group =>   4
Atom  24C    basis set group =>   1
Atom  25C    basis set group =>   1
Atom  26S    basis set group =>   4
Atom  27C    basis set group =>   1
Atom  28C    basis set group =>   1
Atom  29N    basis set group =>   2
Atom  30H    basis set group =>   3
Atom  31H    basis set group =>   3
Atom  32C    basis set group =>   1
Atom  33S    basis set group =>   4
Atom  34C    basis set group =>   1
Atom  35C    basis set group =>   1
Atom  36C    basis set group =>   1
Atom  37C    basis set group =>   1
Atom  38C    basis set group =>   1
Atom  39C    basis set group =>   1
Atom  40C    basis set group =>   1
Atom  41S    basis set group =>   4
Atom  42C    basis set group =>   1
Atom  43C    basis set group =>   1
Atom  44H    basis set group =>   3
Atom  45H    basis set group =>   3
Atom  46H    basis set group =>   3
Atom  47H    basis set group =>   3
Atom  48H    basis set group =>   3
Atom  49H    basis set group =>   3
-------------------------------
AUXILIARY BASIS SET INFORMATION
-------------------------------
There are 4 groups of distinct atoms

 Group   1 Type C   : 12s5p4d2f1g contracted to 6s4p3d1f1g pattern {711111/2111/211/2/1}
 Group   2 Type N   : 12s5p4d2f1g contracted to 6s4p3d1f1g pattern {711111/2111/211/2/1}
 Group   3 Type H   : 5s2p1d contracted to 3s1p1d pattern {311/2/1}
 Group   4 Type S   : 14s5p5d2f1g contracted to 8s4p3d1f1g pattern {71111111/2111/311/2/1}

Atom   0C    basis set group =>   1
Atom   1C    basis set group =>   1
Atom   2C    basis set group =>   1
Atom   3C    basis set group =>   1
Atom   4C    basis set group =>   1
Atom   5C    basis set group =>   1
Atom   6C    basis set group =>   1
Atom   7C    basis set group =>   1
Atom   8N    basis set group =>   2
Atom   9C    basis set group =>   1
Atom  10C    basis set group =>   1
Atom  11C    basis set group =>   1
Atom  12C    basis set group =>   1
Atom  13H    basis set group =>   3
Atom  14H    basis set group =>   3
Atom  15H    basis set group =>   3
Atom  16H    basis set group =>   3
Atom  17H    basis set group =>   3
Atom  18H    basis set group =>   3
Atom  19H    basis set group =>   3
Atom  20N    basis set group =>   2
Atom  21C    basis set group =>   1
Atom  22C    basis set group =>   1
Atom  23S    basis set group =>   4
Atom  24C    basis set group =>   1
Atom  25C    basis set group =>   1
Atom  26S    basis set group =>   4
Atom  27C    basis set group =>   1
Atom  28C    basis set group =>   1
Atom  29N    basis set group =>   2
Atom  30H    basis set group =>   3
Atom  31H    basis set group =>   3
Atom  32C    basis set group =>   1
Atom  33S    basis set group =>   4
Atom  34C    basis set group =>   1
Atom  35C    basis set group =>   1
Atom  36C    basis set group =>   1
Atom  37C    basis set group =>   1
Atom  38C    basis set group =>   1
Atom  39C    basis set group =>   1
Atom  40C    basis set group =>   1
Atom  41S    basis set group =>   4
Atom  42C    basis set group =>   1
Atom  43C    basis set group =>   1
Atom  44H    basis set group =>   3
Atom  45H    basis set group =>   3
Atom  46H    basis set group =>   3
Atom  47H    basis set group =>   3
Atom  48H    basis set group =>   3
Atom  49H    basis set group =>   3
-------------------------
ECP PARAMETER INFORMATION
-------------------------



--------------------------------------------------------------------------
[[24605,1],22]: A high-performance Open MPI point-to-point messaging module
was unable to find any relevant network interfaces:

Module: OpenFabrics (openib)
  Host: cx1-136-9-3

Another transport will be used instead, although this may result in
lower performance.
--------------------------------------------------------------------------


           ************************************************************
           *        Program running with 24 parallel MPI-processes    *
           *              working on a common directory               *
           ************************************************************
------------------------------------------------------------------------------
                           ORCA GTO INTEGRAL CALCULATION
                           -- RI-GTO INTEGRALS CHOSEN --
------------------------------------------------------------------------------

                         BASIS SET STATISTICS AND STARTUP INFO

Gaussian basis set:
 # of primitive gaussian shells          ...  818
 # of primitive gaussian functions       ... 1798
 # of contracted shells                  ...  453
 # of contracted basis functions         ... 1199
 Highest angular momentum                ...    3
 Maximum contraction depth               ...    7
Auxiliary gaussian basis set:
 # of primitive gaussian shells          ...  972
 # of primitive gaussian functions       ... 2718
 # of contracted shells                  ...  608
 # of contracted aux-basis functions     ... 1888
 Highest angular momentum                ...    4
 Maximum contraction depth               ...    7
Ratio of auxiliary to basis functions    ...  1.57
Integral package used                  ... LIBINT
 One Electron integrals                  
   ECP integrals                         ... done
 Ordering auxiliary basis shells         ... done
 Integral threshhold             Thresh  ...  2.500e-11
 Primitive cut-off               TCut    ...  2.500e-12
 Pre-screening matrix                    ... done
 Shell pair data                         ... 
 Ordering of the shell pairs             ... done (   0.018 sec) 51585 of 102831 pairs
 Determination of significant pairs      ... done (   0.000 sec)
 Creation of shell pair data             ... done (   0.012 sec)
 Storage of shell pair data              ... done (   0.129 sec)
 Shell pair data done in (   0.160 sec)
 Computing two index integrals           ... done
 Cholesky decomposition of the V-matrix  ... done


Timings:
 Total evaluation time                   ...   6.612 sec (  0.110 min)
 One electron matrix time                ...   1.916 sec (  0.032 min) = 29.0%
 Schwartz matrix evaluation time         ...   3.321 sec (  0.055 min) = 50.2%
 Two index repulsion integral time       ...   0.482 sec (  0.008 min) =  7.3%
 Cholesky decomposition of V             ...   0.682 sec (  0.011 min) = 10.3%
 Three index repulsion integral time     ...   0.000 sec (  0.000 min) =  0.0%

--------------------------------------------------------------------------
[[24783,1],12]: A high-performance Open MPI point-to-point messaging module
was unable to find any relevant network interfaces:

Module: OpenFabrics (openib)
  Host: cx1-136-9-3

Another transport will be used instead, although this may result in
lower performance.
--------------------------------------------------------------------------


           ************************************************************
           *        Program running with 24 parallel MPI-processes    *
           *              working on a common directory               *
           ************************************************************
-------------------------------------------------------------------------------
                                 ORCA SCF
-------------------------------------------------------------------------------

------------
SCF SETTINGS
------------
Hamiltonian:
 Density Functional     Method          .... DFT(GTOs)
 Exchange Functional    Exchange        .... WB97X-D3
 Correlation Functional Correlation     .... WB97X-D3
 Gradients option       PostSCFGGA      .... off
 Hybrid DFT is turned on
   Fraction HF Exchange ScalHFX         ....  0.195728
   Scaling of DF-GGA-X  ScalDFX         ....  0.000000
   Scaling of DF-GGA-C  ScalDFC         ....  1.000000
   Scaling of DF-LDA-C  ScalLDAC        ....  1.000000
   Perturbative correction              ....  0.000000
 Long-range corrected/Screened/Range-Separated Hybrid DFT is turned on
   Amount of maximum screened exact exchange              ....  0.804272
   Range separation parameter mu (erf(mu*r12)/r12)        ....  0.250000
 RI-approximation to the Coulomb term is turned on
   Number of auxiliary basis functions  .... 1888
   RIJ-COSX (HFX calculated with COS-X)).... on


General Settings:
 Integral files         IntName         .... total
 Hartree-Fock type      HFTyp           .... RHF
 Total Charge           Charge          ....    0
 Multiplicity           Mult            ....    1
 Number of Electrons    NEL             ....  268
 Basis Dimension        Dim             .... 1199
 Nuclear Repulsion      ENuc            ....   3846.2719251686 Eh

Convergence Acceleration:
 DIIS                   CNVDIIS         .... on
   Start iteration      DIISMaxIt       ....    12
   Startup error        DIISStart       ....  0.200000
   # of expansion vecs  DIISMaxEq       ....     5
   Bias factor          DIISBfac        ....   1.050
   Max. coefficient     DIISMaxC        ....  10.000
 Newton-Raphson         CNVNR           .... off
 SOSCF                  CNVSOSCF        .... on
   Start iteration      SOSCFMaxIt      ....   150
   Startup grad/error   SOSCFStart      ....  0.003300
 Level Shifting         CNVShift        .... on
   Level shift para.    LevelShift      ....    0.2500
   Turn off err/grad.   ShiftErr        ....    0.0010
 Zerner damping         CNVZerner       .... off
 Static damping         CNVDamp         .... on
   Fraction old density DampFac         ....    0.7000
   Max. Damping (<1)    DampMax         ....    0.9800
   Min. Damping (>=0)   DampMin         ....    0.0000
   Turn off err/grad.   DampErr         ....    0.1000
 Fernandez-Rico         CNVRico         .... off

SCF Procedure:
 Maximum # iterations   MaxIter         ....   125
 SCF integral mode      SCFMode         .... Direct
   Integral package                     .... LIBINT
 Reset frequeny         DirectResetFreq ....    20
 Integral Threshold     Thresh          ....  2.500e-11 Eh
 Primitive CutOff       TCut            ....  2.500e-12 Eh

Convergence Tolerance:
 Convergence Check Mode ConvCheckMode   .... Total+1el-Energy
 Convergence forced     ConvForced      .... 1
 Energy Change          TolE            ....  1.000e-08 Eh
 1-El. energy change                    ....  1.000e-05 Eh
 Orbital Gradient       TolG            ....  1.000e-05
 Orbital Rotation angle TolX            ....  1.000e-05
 DIIS Error             TolErr          ....  5.000e-07


Diagonalization of the overlap matrix:
Smallest eigenvalue                        ... 4.670e-06
Time for diagonalization                   ...    0.546 sec
Threshold for overlap eigenvalues          ... 1.000e-08
Number of eigenvalues below threshold      ... 0
Time for construction of square roots      ...    0.458 sec
Total time needed                          ...    1.013 sec

-------------------
DFT GRID GENERATION
-------------------

General Integration Accuracy     IntAcc      ...  5.010
Radial Grid Type                 RadialGrid  ... Gauss-Chebyshev
Angular Grid (max. acc.)         AngularGrid ... Lebedev-434
Angular grid pruning method      GridPruning ... 3 (G Style)
Weight generation scheme         WeightScheme... Becke
Basis function cutoff            BFCut       ...    1.0000e-11
Integration weight cutoff        WCut        ...    1.0000e-14
Grids for H and He will be reduced by one unit

# of grid points (after initial pruning)     ... 478654 (   0.0 sec)
# of grid points (after weights+screening)   ... 418944 (   2.0 sec)
nearest neighbour list constructed           ...    0.0 sec
Grid point re-assignment to atoms done       ...    0.2 sec
Grid point division into batches done        ...    4.8 sec
Reduced shell lists constructed in    5.8 sec

Total number of grid points                  ...   418944
Total number of batches                      ...     6571
Average number of points per batch           ...       63
Average number of grid points per atom       ...     8379
Average number of shells per batch           ...   141.48 (31.23%)
Average number of basis functions per batch  ...   367.86 (30.68%)
Average number of large shells per batch     ...    96.52 (68.22%)
Average number of large basis fcns per batch ...   250.80 (68.18%)
Maximum spatial batch extension              ...   9.00, 12.40, 13.51 au
Average spatial batch extension              ...   0.05,  0.05,  0.05 au

Time for grid setup =    9.180 sec

------------------------------
INITIAL GUESS: MODEL POTENTIAL
------------------------------
Loading Hartree-Fock densities                     ... done
Calculating cut-offs                               ... done
Setting up the integral package                    ... done
Initializing the effective Hamiltonian             ... done
Starting the Coulomb interaction                   ... done (   0.6 sec)
Reading the grid                                   ... done
Mapping shells                                     ... done
Starting the XC term evaluation                    ... done (   2.5 sec)
  promolecular density results
     # of electrons  =    267.992644235
     EX              =   -266.906698363
     EC              =     -9.419462796
     EX+EC           =   -276.326161159
Transforming the Hamiltonian                       ... done (   0.2 sec)
Diagonalizing the Hamiltonian                      ... done (   0.5 sec)
Back transforming the eigenvectors                 ... done (   0.1 sec)
Now organizing SCF variables                       ... done
                      ------------------
                      INITIAL GUESS DONE (  13.4 sec)
                      ------------------
--------------------
COSX GRID GENERATION
--------------------

General Integration Accuracy     IntAcc      ...  3.340
Radial Grid Type                 RadialGrid  ... Gauss-Chebyshev
Angular Grid (max. acc.)         AngularGrid ... Lebedev-50
Angular grid pruning method      GridPruning ... 3 (G Style)
Weight generation scheme         WeightScheme... Becke
Basis function cutoff            BFCut       ...    1.0000e-11
Integration weight cutoff        WCut        ...    1.0000e-14
Grids for H and He will be reduced by one unit

# of grid points (after initial pruning)     ...  25562 (   0.0 sec)
# of grid points (after weights+screening)   ...  23295 (   0.1 sec)
nearest neighbour list constructed           ...    0.0 sec
Grid point re-assignment to atoms done       ...    0.0 sec
Grid point division into batches done        ...    0.0 sec
Reduced shell lists constructed in    0.1 sec

Total number of grid points                  ...    23295
Total number of batches                      ...      390
Average number of points per batch           ...       59
Average number of grid points per atom       ...      466
Average number of shells per batch           ...   155.83 (34.40%)
Average number of basis functions per batch  ...   409.61 (34.16%)
Average number of large shells per batch     ...   108.11 (69.38%)
Average number of large basis fcns per batch ...   285.56 (69.71%)
Maximum spatial batch extension              ...   5.44, 10.34, 13.29 au
Average spatial batch extension              ...   0.12,  0.17,  0.19 au

Overlap Fitting                  UseSFitting ... on
Constructing numerical overlap ... done (      0.2 sec)
Inverting numerical overlap    ... done (      0.2 sec)
Obtaining analytic overlap     ... done (      0.0 sec)
Final contraction and storage  ... done (      0.6 sec)


General Integration Accuracy     IntAcc      ...  3.670
Radial Grid Type                 RadialGrid  ... Gauss-Chebyshev
Angular Grid (max. acc.)         AngularGrid ... Lebedev-50
Angular grid pruning method      GridPruning ... 3 (G Style)
Weight generation scheme         WeightScheme... Becke
Basis function cutoff            BFCut       ...    1.0000e-11
Integration weight cutoff        WCut        ...    1.0000e-14
Grids for H and He will be reduced by one unit

# of grid points (after initial pruning)     ...  31906 (   0.0 sec)
# of grid points (after weights+screening)   ...  28979 (   0.1 sec)
nearest neighbour list constructed           ...    0.0 sec
Grid point re-assignment to atoms done       ...    0.0 sec
Grid point division into batches done        ...    0.0 sec
Reduced shell lists constructed in    0.1 sec

Total number of grid points                  ...    28979
Total number of batches                      ...      477
Average number of points per batch           ...       60
Average number of grid points per atom       ...      580
Average number of shells per batch           ...   154.05 (34.01%)
Average number of basis functions per batch  ...   403.38 (33.64%)
Average number of large shells per batch     ...   106.38 (69.06%)
Average number of large basis fcns per batch ...   278.95 (69.15%)
Maximum spatial batch extension              ...   4.75, 11.44, 14.71 au
Average spatial batch extension              ...   0.10,  0.15,  0.17 au

Overlap Fitting                  UseSFitting ... on
Constructing numerical overlap ... done (      0.2 sec)
Inverting numerical overlap    ... done (      0.2 sec)
Obtaining analytic overlap     ... done (      0.0 sec)
Final contraction and storage  ... done (      0.6 sec)


General Integration Accuracy     IntAcc      ...  4.010
Radial Grid Type                 RadialGrid  ... Gauss-Chebyshev
Angular Grid (max. acc.)         AngularGrid ... Lebedev-110
Angular grid pruning method      GridPruning ... 3 (G Style)
Weight generation scheme         WeightScheme... Becke
Basis function cutoff            BFCut       ...    1.0000e-11
Integration weight cutoff        WCut        ...    1.0000e-14
Grids for H and He will be reduced by one unit

# of grid points (after initial pruning)     ...  62056 (   0.0 sec)
# of grid points (after weights+screening)   ...  55820 (   0.3 sec)
nearest neighbour list constructed           ...    0.0 sec
Grid point re-assignment to atoms done       ...    0.0 sec
Grid point division into batches done        ...    0.1 sec
Reduced shell lists constructed in    0.2 sec

Total number of grid points                  ...    55820
Total number of batches                      ...      894
Average number of points per batch           ...       62
Average number of grid points per atom       ...     1116
Average number of shells per batch           ...   153.59 (33.91%)
Average number of basis functions per batch  ...   403.90 (33.69%)
Average number of large shells per batch     ...   106.97 (69.65%)
Average number of large basis fcns per batch ...   281.79 (69.77%)
Maximum spatial batch extension              ...   5.56, 11.92, 14.76 au
Average spatial batch extension              ...   0.09,  0.12,  0.14 au

Overlap Fitting                  UseSFitting ... on
Constructing numerical overlap ... done (      0.3 sec)
Inverting numerical overlap    ... done (      0.2 sec)
Obtaining analytic overlap     ... done (      0.0 sec)
Final contraction and storage  ... done (      0.6 sec)

Time for X-Grid setup             =    4.419 sec
--------------
SCF ITERATIONS
--------------
ITER       Energy         Delta-E        Max-DP      RMS-DP      [F,P]     Damp
               ***  Starting incremental Fock matrix formation  ***
  0  -2832.3413845581   0.000000000000 0.04375109  0.00061492  0.2089646 0.7000
  1  -2832.6833655273  -0.341980969146 0.03498794  0.00048237  0.1016838 0.7000
                               ***Turning on DIIS***
  2  -2832.8401683795  -0.156802852174 0.08919308  0.00102224  0.0555162 0.0000
  3  -2833.0892607809  -0.249092401399 0.05268266  0.00041077  0.0466781 0.0000
  4  -2833.1405434008  -0.051282619937 0.02964589  0.00017177  0.0095524 0.0000
  5  -2833.1428689359  -0.002325535115 0.01468949  0.00007658  0.0073705 0.0000
                      *** Initiating the SOSCF procedure ***
                           *** Shutting down DIIS ***
                      *** Re-Reading the Fockian *** 
                      *** Removing any level shift *** 
ITER      Energy       Delta-E        Grad      Rot      Max-DP    RMS-DP
  6  -2833.14349292  -0.0006239832  0.001530  0.001530  0.008842  0.000044
               *** Restarting incremental Fock matrix formation ***
  7  -2833.14372558  -0.0002326634  0.001062  0.002776  0.027813  0.000147
  8  -2833.14382237  -0.0000967909  0.000401  0.002841  0.017289  0.000100
  9  -2833.14384332  -0.0000209511  0.000370  0.000763  0.014663  0.000082
 10  -2833.14385705  -0.0000137220  0.000082  0.000230  0.002092  0.000012
 11  -2833.14385744  -0.0000003967  0.000064  0.000113  0.001467  0.000008
 12  -2833.14385800  -0.0000005543  0.000012  0.000041  0.000158  0.000002
 13  -2833.14385799   0.0000000074  0.000011  0.000018  0.000241  0.000002
 14  -2833.14385812  -0.0000001344  0.000003  0.000010  0.000416  0.000002
                  ***Gradient check signals convergence***
              ***Rediagonalizing the Fockian in SOSCF/NRSCF***

               *****************************************************
               *                     SUCCESS                       *
               *           SCF CONVERGED AFTER  15 CYCLES          *
               *****************************************************

Old exchange energy                            =    -81.680736135 Eh
New exchange energy                            =    -81.681868441 Eh
Exchange energy change after final integration =     -0.001132306 Eh
Total energy after final integration           =  -2833.144990477 Eh
Final COS-X integration done in                =    54.928 sec

----------------
TOTAL SCF ENERGY
----------------

Total Energy       :        -2833.14499048 Eh          -77093.79456 eV

Components:
Nuclear Repulsion  :         3846.27192517 Eh          104662.38002 eV
Electronic Energy  :        -6679.41691565 Eh         -181756.17458 eV
One Electron Energy:       -11536.56759355 Eh         -313925.96391 eV
Two Electron Energy:         4857.15067791 Eh          132169.78933 eV

Virial components:
Potential Energy   :        -5656.58202089 Eh         -153923.42210 eV
Kinetic Energy     :         2823.43703041 Eh           76829.62754 eV
Virial Ratio       :            2.00343835


DFT components:
N(Alpha)           :      133.999987526725 electrons
N(Beta)            :      133.999987526725 electrons
N(Total)           :      267.999975053451 electrons
E(XC)              :     -199.173014980546 Eh       

---------------
SCF CONVERGENCE
---------------

  Last Energy change         ...   -4.6129e-08  Tolerance :   1.0000e-08
  Last MAX-Density change    ...    1.8770e-13  Tolerance :   1.0000e-07
  Last RMS-Density change    ...    2.2497e-16  Tolerance :   5.0000e-09
  Last Orbital Gradient      ...    1.5464e-06  Tolerance :   1.0000e-05
  Last Orbital Rotation      ...    4.2250e-06  Tolerance :   1.0000e-05

             **** THE GBW FILE WAS UPDATED (total.gbw) ****
             **** DENSITY FILE WAS UPDATED (total.scfp.tmp) ****
             **** ENERGY FILE WAS UPDATED (total.en.tmp) ****
----------------
ORBITAL ENERGIES
----------------

  NO   OCC          E(Eh)            E(eV) 
   0   2.0000     -88.996179     -2421.7092 
   1   2.0000     -88.989027     -2421.5145 
   2   2.0000     -88.982344     -2421.3327 
   3   2.0000     -88.973566     -2421.0938 
   4   2.0000     -14.470442      -393.7607 
   5   2.0000     -14.432028      -392.7155 
   6   2.0000     -14.428614      -392.6225 
   7   2.0000     -10.370027      -282.1828 
   8   2.0000     -10.360827      -281.9324 
   9   2.0000     -10.338872      -281.3350 
  10   2.0000     -10.334119      -281.2057 
  11   2.0000     -10.331438      -281.1327 
  12   2.0000     -10.328673      -281.0575 
  13   2.0000     -10.328198      -281.0446 
  14   2.0000     -10.327315      -281.0205 
  15   2.0000     -10.325175      -280.9623 
  16   2.0000     -10.323651      -280.9208 
  17   2.0000     -10.322520      -280.8901 
  18   2.0000     -10.314621      -280.6751 
  19   2.0000     -10.313859      -280.6544 
  20   2.0000     -10.313636      -280.6483 
  21   2.0000     -10.310090      -280.5518 
  22   2.0000     -10.307884      -280.4918 
  23   2.0000     -10.306262      -280.4477 
  24   2.0000     -10.297962      -280.2218 
  25   2.0000     -10.297301      -280.2038 
  26   2.0000     -10.292461      -280.0721 
  27   2.0000     -10.292436      -280.0714 
  28   2.0000     -10.290838      -280.0280 
  29   2.0000     -10.288408      -279.9618 
  30   2.0000     -10.286837      -279.9191 
  31   2.0000     -10.286188      -279.9014 
  32   2.0000     -10.284727      -279.8617 
  33   2.0000     -10.278223      -279.6847 
  34   2.0000     -10.277235      -279.6578 
  35   2.0000      -8.092481      -220.2076 
  36   2.0000      -8.085765      -220.0249 
  37   2.0000      -8.079208      -219.8464 
  38   2.0000      -8.070458      -219.6083 
  39   2.0000      -6.045676      -164.5112 
  40   2.0000      -6.041539      -164.3986 
  41   2.0000      -6.039643      -164.3470 
  42   2.0000      -6.038814      -164.3245 
  43   2.0000      -6.034953      -164.2194 
  44   2.0000      -6.032918      -164.1640 
  45   2.0000      -6.032878      -164.1630 
  46   2.0000      -6.028578      -164.0460 
  47   2.0000      -6.025492      -163.9620 
  48   2.0000      -6.024064      -163.9231 
  49   2.0000      -6.019899      -163.8098 
  50   2.0000      -6.016816      -163.7259 
  51   2.0000      -1.107260       -30.1301 
  52   2.0000      -1.091477       -29.7006 
  53   2.0000      -1.070783       -29.1375 
  54   2.0000      -1.024959       -27.8906 
  55   2.0000      -0.992995       -27.0208 
  56   2.0000      -0.979575       -26.6556 
  57   2.0000      -0.967775       -26.3345 
  58   2.0000      -0.936915       -25.4947 
  59   2.0000      -0.924025       -25.1440 
  60   2.0000      -0.919887       -25.0314 
  61   2.0000      -0.916269       -24.9330 
  62   2.0000      -0.899951       -24.4889 
  63   2.0000      -0.894046       -24.3282 
  64   2.0000      -0.871274       -23.7086 
  65   2.0000      -0.854340       -23.2478 
  66   2.0000      -0.850697       -23.1486 
  67   2.0000      -0.841249       -22.8915 
  68   2.0000      -0.835169       -22.7261 
  69   2.0000      -0.826559       -22.4918 
  70   2.0000      -0.806285       -21.9401 
  71   2.0000      -0.768206       -20.9039 
  72   2.0000      -0.756734       -20.5918 
  73   2.0000      -0.734641       -19.9906 
  74   2.0000      -0.723689       -19.6926 
  75   2.0000      -0.717220       -19.5165 
  76   2.0000      -0.714372       -19.4391 
  77   2.0000      -0.700422       -19.0594 
  78   2.0000      -0.677803       -18.4440 
  79   2.0000      -0.673052       -18.3147 
  80   2.0000      -0.667407       -18.1611 
  81   2.0000      -0.656402       -17.8616 
  82   2.0000      -0.644648       -17.5418 
  83   2.0000      -0.639523       -17.4023 
  84   2.0000      -0.626277       -17.0419 
  85   2.0000      -0.620582       -16.8869 
  86   2.0000      -0.614522       -16.7220 
  87   2.0000      -0.602373       -16.3914 
  88   2.0000      -0.583819       -15.8865 
  89   2.0000      -0.574637       -15.6367 
  90   2.0000      -0.564910       -15.3720 
  91   2.0000      -0.559715       -15.2306 
  92   2.0000      -0.556547       -15.1444 
  93   2.0000      -0.548508       -14.9257 
  94   2.0000      -0.546791       -14.8789 
  95   2.0000      -0.539693       -14.6858 
  96   2.0000      -0.537039       -14.6136 
  97   2.0000      -0.535443       -14.5702 
  98   2.0000      -0.533370       -14.5137 
  99   2.0000      -0.527548       -14.3553 
 100   2.0000      -0.525454       -14.2983 
 101   2.0000      -0.522885       -14.2284 
 102   2.0000      -0.513143       -13.9633 
 103   2.0000      -0.508253       -13.8303 
 104   2.0000      -0.501624       -13.6499 
 105   2.0000      -0.492215       -13.3939 
 106   2.0000      -0.481544       -13.1035 
 107   2.0000      -0.474869       -12.9219 
 108   2.0000      -0.474276       -12.9057 
 109   2.0000      -0.470391       -12.8000 
 110   2.0000      -0.468724       -12.7546 
 111   2.0000      -0.466725       -12.7002 
 112   2.0000      -0.457870       -12.4593 
 113   2.0000      -0.453336       -12.3359 
 114   2.0000      -0.444826       -12.1043 
 115   2.0000      -0.441345       -12.0096 
 116   2.0000      -0.435475       -11.8499 
 117   2.0000      -0.433564       -11.7979 
 118   2.0000      -0.423781       -11.5317 
 119   2.0000      -0.421058       -11.4576 
 120   2.0000      -0.404471       -11.0062 
 121   2.0000      -0.392147       -10.6709 
 122   2.0000      -0.383678       -10.4404 
 123   2.0000      -0.374936       -10.2025 
 124   2.0000      -0.373576       -10.1655 
 125   2.0000      -0.363472        -9.8906 
 126   2.0000      -0.361138        -9.8271 
 127   2.0000      -0.344515        -9.3747 
 128   2.0000      -0.343397        -9.3443 
 129   2.0000      -0.316560        -8.6140 
 130   2.0000      -0.312579        -8.5057 
 131   2.0000      -0.299417        -8.1476 
 132   2.0000      -0.287102        -7.8124 
 133   2.0000      -0.277096        -7.5402 
 134   0.0000      -0.014003        -0.3810 
 135   0.0000      -0.003217        -0.0875 
 136   0.0000       0.030201         0.8218 
 137   0.0000       0.039132         1.0648 
 138   0.0000       0.056196         1.5292 
 139   0.0000       0.060261         1.6398 
 140   0.0000       0.076549         2.0830 
 141   0.0000       0.079256         2.1567 
 142   0.0000       0.088678         2.4131 
 143   0.0000       0.091744         2.4965 
 144   0.0000       0.095233         2.5914 
 145   0.0000       0.099941         2.7195 
 146   0.0000       0.107351         2.9212 
 147   0.0000       0.111607         3.0370 
 148   0.0000       0.123505         3.3607 
 149   0.0000       0.127895         3.4802 
 150   0.0000       0.132218         3.5978 
 151   0.0000       0.136905         3.7254 
 152   0.0000       0.139943         3.8080 
 153   0.0000       0.144990         3.9454 
 154   0.0000       0.148799         4.0490 
 155   0.0000       0.150971         4.1081 
 156   0.0000       0.155512         4.2317 
 157   0.0000       0.158625         4.3164 
 158   0.0000       0.159660         4.3446 
 159   0.0000       0.161265         4.3882 
 160   0.0000       0.163936         4.4609 
 161   0.0000       0.171787         4.6746 
 162   0.0000       0.174245         4.7414 
 163   0.0000       0.175710         4.7813 
 164   0.0000       0.180309         4.9065 
 165   0.0000       0.186470         5.0741 
 166   0.0000       0.189548         5.1579 
 167   0.0000       0.193724         5.2715 
 168   0.0000       0.196024         5.3341 
 169   0.0000       0.200320         5.4510 
 170   0.0000       0.207140         5.6366 
 171   0.0000       0.208662         5.6780 
 172   0.0000       0.217245         5.9115 
 173   0.0000       0.222186         6.0460 
 174   0.0000       0.223809         6.0901 
 175   0.0000       0.225345         6.1319 
 176   0.0000       0.228697         6.2231 
 177   0.0000       0.237549         6.4640 
 178   0.0000       0.241368         6.5680 
 179   0.0000       0.251575         6.8457 
 180   0.0000       0.254251         6.9185 
 181   0.0000       0.258134         7.0242 
 182   0.0000       0.260271         7.0823 
 183   0.0000       0.264151         7.1879 
 184   0.0000       0.267055         7.2669 
 185   0.0000       0.269370         7.3299 
 186   0.0000       0.274909         7.4807 
 187   0.0000       0.275434         7.4949 
 188   0.0000       0.277482         7.5507 
 189   0.0000       0.280669         7.6374 
 190   0.0000       0.283908         7.7255 
 191   0.0000       0.287263         7.8168 
 192   0.0000       0.291602         7.9349 
 193   0.0000       0.294592         8.0163 
 194   0.0000       0.297189         8.0869 
 195   0.0000       0.297725         8.1015 
 196   0.0000       0.300669         8.1816 
 197   0.0000       0.302478         8.2308 
 198   0.0000       0.304291         8.2802 
 199   0.0000       0.308685         8.3998 
 200   0.0000       0.313041         8.5183 
 201   0.0000       0.314724         8.5641 
 202   0.0000       0.319995         8.7075 
 203   0.0000       0.322940         8.7876 
 204   0.0000       0.327033         8.8990 
 205   0.0000       0.329716         8.9720 
 206   0.0000       0.330886         9.0039 
 207   0.0000       0.333689         9.0801 
 208   0.0000       0.337375         9.1804 
 209   0.0000       0.339355         9.2343 
 210   0.0000       0.342143         9.3102 
 211   0.0000       0.344158         9.3650 
 212   0.0000       0.347008         9.4426 
 213   0.0000       0.352817         9.6006 
 214   0.0000       0.353706         9.6248 
 215   0.0000       0.355686         9.6787 
 216   0.0000       0.357046         9.7157 
 217   0.0000       0.361464         9.8359 
 218   0.0000       0.368570        10.0293 
 219   0.0000       0.370916        10.0931 
 220   0.0000       0.371291        10.1033 
 221   0.0000       0.372822        10.1450 
 222   0.0000       0.376697        10.2504 
 223   0.0000       0.381208        10.3732 
 224   0.0000       0.384207        10.4548 
 225   0.0000       0.385247        10.4831 
 226   0.0000       0.385994        10.5034 
 227   0.0000       0.386892        10.5279 
 228   0.0000       0.393234        10.7005 
 229   0.0000       0.395560        10.7637 
 230   0.0000       0.401622        10.9287 
 231   0.0000       0.406013        11.0482 
 232   0.0000       0.407033        11.0759 
 233   0.0000       0.410761        11.1774 
 234   0.0000       0.413610        11.2549 
 235   0.0000       0.417133        11.3508 
 236   0.0000       0.419038        11.4026 
 237   0.0000       0.421959        11.4821 
 238   0.0000       0.422870        11.5069 
 239   0.0000       0.426118        11.5953 
 240   0.0000       0.429101        11.6764 
 241   0.0000       0.432477        11.7683 
 242   0.0000       0.432971        11.7817 
 243   0.0000       0.433373        11.7927 
 244   0.0000       0.436690        11.8829 
 245   0.0000       0.439552        11.9608 
 246   0.0000       0.441764        12.0210 
 247   0.0000       0.442108        12.0304 
 248   0.0000       0.450114        12.2482 
 249   0.0000       0.452444        12.3116 
 250   0.0000       0.455188        12.3863 
 251   0.0000       0.460574        12.5328 
 252   0.0000       0.464075        12.6281 
 253   0.0000       0.465819        12.6756 
 254   0.0000       0.467058        12.7093 
 255   0.0000       0.468113        12.7380 
 256   0.0000       0.470617        12.8062 
 257   0.0000       0.474286        12.9060 
 258   0.0000       0.475057        12.9270 
 259   0.0000       0.477140        12.9836 
 260   0.0000       0.478541        13.0218 
 261   0.0000       0.484353        13.1799 
 262   0.0000       0.488385        13.2896 
 263   0.0000       0.489780        13.3276 
 264   0.0000       0.490284        13.3413 
 265   0.0000       0.494075        13.4445 
 266   0.0000       0.496354        13.5065 
 267   0.0000       0.500386        13.6162 
 268   0.0000       0.503359        13.6971 
 269   0.0000       0.504766        13.7354 
 270   0.0000       0.507880        13.8201 
 271   0.0000       0.510570        13.8933 
 272   0.0000       0.514597        14.0029 
 273   0.0000       0.515990        14.0408 
 274   0.0000       0.519556        14.1378 
 275   0.0000       0.521361        14.1870 
 276   0.0000       0.525430        14.2977 
 277   0.0000       0.527308        14.3488 
 278   0.0000       0.532181        14.4814 
 279   0.0000       0.534907        14.5556 
 280   0.0000       0.541573        14.7369 
 281   0.0000       0.543765        14.7966 
 282   0.0000       0.546631        14.8746 
 283   0.0000       0.549628        14.9562 
 284   0.0000       0.553538        15.0625 
 285   0.0000       0.556387        15.1401 
 286   0.0000       0.559149        15.2152 
 287   0.0000       0.560022        15.2390 
 288   0.0000       0.566133        15.4053 
 289   0.0000       0.568284        15.4638 
 290   0.0000       0.572584        15.5808 
 291   0.0000       0.576471        15.6866 
 292   0.0000       0.578305        15.7365 
 293   0.0000       0.581489        15.8231 
 294   0.0000       0.587834        15.9958 
 295   0.0000       0.589836        16.0502 
 296   0.0000       0.594286        16.1713 
 297   0.0000       0.597601        16.2615 
 298   0.0000       0.599663        16.3177 
 299   0.0000       0.609176        16.5765 
 300   0.0000       0.615779        16.7562 
 301   0.0000       0.620424        16.8826 
 302   0.0000       0.623162        16.9571 
 303   0.0000       0.626544        17.0491 
 304   0.0000       0.630985        17.1700 
 305   0.0000       0.633919        17.2498 
 306   0.0000       0.642416        17.4810 
 307   0.0000       0.645799        17.5731 
 308   0.0000       0.650744        17.7076 
 309   0.0000       0.652938        17.7674 
 310   0.0000       0.657888        17.9020 
 311   0.0000       0.664024        18.0690 
 312   0.0000       0.668843        18.2001 
 313   0.0000       0.673454        18.3256 
 314   0.0000       0.675160        18.3720 
 315   0.0000       0.678260        18.4564 
 316   0.0000       0.680137        18.5075 
 317   0.0000       0.680781        18.5250 
 318   0.0000       0.684270        18.6199 
 319   0.0000       0.686427        18.6786 
 320   0.0000       0.687656        18.7121 
 321   0.0000       0.692322        18.8391 
 322   0.0000       0.693259        18.8645 
 323   0.0000       0.697627        18.9834 
 324   0.0000       0.703022        19.1302 
 325   0.0000       0.705739        19.2041 
 326   0.0000       0.710256        19.3271 
 327   0.0000       0.713582        19.4175 
 328   0.0000       0.716667        19.5015 
 329   0.0000       0.720105        19.5950 
 330   0.0000       0.724820        19.7233 
 331   0.0000       0.725160        19.7326 
 332   0.0000       0.727089        19.7851 
 333   0.0000       0.730761        19.8850 
 334   0.0000       0.736507        20.0414 
 335   0.0000       0.744155        20.2495 
 336   0.0000       0.744831        20.2679 
 337   0.0000       0.749752        20.4018 
 338   0.0000       0.751625        20.4528 
 339   0.0000       0.752679        20.4814 
 340   0.0000       0.758985        20.6530 
 341   0.0000       0.762279        20.7427 
 342   0.0000       0.768492        20.9117 
 343   0.0000       0.769915        20.9505 
 344   0.0000       0.770772        20.9738 
 345   0.0000       0.776512        21.1300 
 346   0.0000       0.777306        21.1516 
 347   0.0000       0.781776        21.2732 
 348   0.0000       0.784721        21.3533 
 349   0.0000       0.788359        21.4523 
 350   0.0000       0.795433        21.6448 
 351   0.0000       0.796078        21.6624 
 352   0.0000       0.799632        21.7591 
 353   0.0000       0.801764        21.8171 
 354   0.0000       0.804656        21.8958 
 355   0.0000       0.809493        22.0274 
 356   0.0000       0.812833        22.1183 
 357   0.0000       0.815807        22.1992 
 358   0.0000       0.817390        22.2423 
 359   0.0000       0.820137        22.3171 
 360   0.0000       0.824035        22.4231 
 361   0.0000       0.828035        22.5320 
 362   0.0000       0.832469        22.6526 
 363   0.0000       0.832926        22.6651 
 364   0.0000       0.838832        22.8258 
 365   0.0000       0.840968        22.8839 
 366   0.0000       0.843542        22.9539 
 367   0.0000       0.849338        23.1117 
 368   0.0000       0.851123        23.1602 
 369   0.0000       0.855135        23.2694 
 370   0.0000       0.857537        23.3348 
 371   0.0000       0.859545        23.3894 
 372   0.0000       0.863023        23.4841 
 373   0.0000       0.866536        23.5797 
 374   0.0000       0.881546        23.9881 
 375   0.0000       0.884671        24.0731 
 376   0.0000       0.893250        24.3066 
 377   0.0000       0.895483        24.3673 
 378   0.0000       0.898928        24.4611 
 379   0.0000       0.903104        24.5747 
 380   0.0000       0.906645        24.6711 
 381   0.0000       0.911560        24.8048 
 382   0.0000       0.920043        25.0356 
 383   0.0000       0.921665        25.0798 
 384   0.0000       0.925081        25.1727 
 385   0.0000       0.933882        25.4122 
 386   0.0000       0.935865        25.4662 
 387   0.0000       0.943247        25.6671 
 388   0.0000       0.944960        25.7137 
 389   0.0000       0.945730        25.7346 
 390   0.0000       0.950159        25.8551 
 391   0.0000       0.952835        25.9280 
 392   0.0000       0.956302        26.0223 
 393   0.0000       0.961566        26.1655 
 394   0.0000       0.964583        26.2476 
 395   0.0000       0.972452        26.4618 
 396   0.0000       0.976574        26.5739 
 397   0.0000       0.981570        26.7099 
 398   0.0000       0.985700        26.8223 
 399   0.0000       0.993120        27.0242 
 400   0.0000       0.997507        27.1435 
 401   0.0000       1.003023        27.2936 
 402   0.0000       1.004774        27.3413 
 403   0.0000       1.005616        27.3642 
 404   0.0000       1.012689        27.5567 
 405   0.0000       1.023976        27.8638 
 406   0.0000       1.024853        27.8877 
 407   0.0000       1.028396        27.9841 
 408   0.0000       1.036661        28.2090 
 409   0.0000       1.042751        28.3747 
 410   0.0000       1.045372        28.4460 
 411   0.0000       1.049351        28.5543 
 412   0.0000       1.055786        28.7294 
 413   0.0000       1.059107        28.8198 
 414   0.0000       1.067734        29.0545 
 415   0.0000       1.072692        29.1894 
 416   0.0000       1.075781        29.2735 
 417   0.0000       1.079669        29.3793 
 418   0.0000       1.081174        29.4202 
 419   0.0000       1.086440        29.5635 
 420   0.0000       1.092448        29.7270 
 421   0.0000       1.093025        29.7427 
 422   0.0000       1.103583        30.0300 
 423   0.0000       1.105519        30.0827 
 424   0.0000       1.113911        30.3111 
 425   0.0000       1.121787        30.5254 
 426   0.0000       1.125243        30.6194 
 427   0.0000       1.131450        30.7883 
 428   0.0000       1.132536        30.8179 
 429   0.0000       1.139736        31.0138 
 430   0.0000       1.150357        31.3028 
 431   0.0000       1.154830        31.4245 
 432   0.0000       1.157482        31.4967 
 433   0.0000       1.159231        31.5443 
 434   0.0000       1.162305        31.6279 
 435   0.0000       1.174568        31.9616 
 436   0.0000       1.176520        32.0147 
 437   0.0000       1.181948        32.1624 
 438   0.0000       1.189729        32.3742 
 439   0.0000       1.194630        32.5075 
 440   0.0000       1.195855        32.5409 
 441   0.0000       1.201792        32.7024 
 442   0.0000       1.210465        32.9384 
 443   0.0000       1.211382        32.9634 
 444   0.0000       1.216872        33.1128 
 445   0.0000       1.220600        33.2142 
 446   0.0000       1.224222        33.3128 
 447   0.0000       1.226378        33.3714 
 448   0.0000       1.232698        33.5434 
 449   0.0000       1.236862        33.6567 
 450   0.0000       1.247839        33.9554 
 451   0.0000       1.252217        34.0746 
 452   0.0000       1.258306        34.2402 
 453   0.0000       1.269556        34.5464 
 454   0.0000       1.275377        34.7048 
 455   0.0000       1.281113        34.8608 
 456   0.0000       1.292320        35.1658 
 457   0.0000       1.294606        35.2280 
 458   0.0000       1.302565        35.4446 
 459   0.0000       1.308186        35.5975 
 460   0.0000       1.311678        35.6926 
 461   0.0000       1.315450        35.7952 
 462   0.0000       1.323784        36.0220 
 463   0.0000       1.329717        36.1834 
 464   0.0000       1.337379        36.3919 
 465   0.0000       1.339562        36.4513 
 466   0.0000       1.342904        36.5423 
 467   0.0000       1.350447        36.7475 
 468   0.0000       1.352860        36.8132 
 469   0.0000       1.356078        36.9008 
 470   0.0000       1.360046        37.0087 
 471   0.0000       1.367580        37.2137 
 472   0.0000       1.368524        37.2394 
 473   0.0000       1.375147        37.4197 
 474   0.0000       1.379090        37.5270 
 475   0.0000       1.389046        37.7979 
 476   0.0000       1.391588        37.8670 
 477   0.0000       1.394693        37.9515 
 478   0.0000       1.399555        38.0838 
 479   0.0000       1.404114        38.2079 
 480   0.0000       1.408706        38.3328 
 481   0.0000       1.423889        38.7460 
 482   0.0000       1.424413        38.7603 
 483   0.0000       1.432069        38.9686 
 484   0.0000       1.437382        39.1132 
 485   0.0000       1.440106        39.1873 
 486   0.0000       1.445780        39.3417 
 487   0.0000       1.453082        39.5404 
 488   0.0000       1.462834        39.8057 
 489   0.0000       1.466290        39.8998 
 490   0.0000       1.467386        39.9296 
 491   0.0000       1.477031        40.1921 
 492   0.0000       1.481068        40.3019 
 493   0.0000       1.484938        40.4072 
 494   0.0000       1.490294        40.5530 
 495   0.0000       1.493663        40.6446 
 496   0.0000       1.498045        40.7639 
 497   0.0000       1.501036        40.8453 
 498   0.0000       1.511136        41.1201 
 499   0.0000       1.511856        41.1397 
 500   0.0000       1.516800        41.2742 
 501   0.0000       1.523971        41.4694 
 502   0.0000       1.527929        41.5771 
 503   0.0000       1.530988        41.6603 
 504   0.0000       1.536651        41.8144 
 505   0.0000       1.543456        41.9996 
 506   0.0000       1.547793        42.1176 
 507   0.0000       1.550859        42.2010 
 508   0.0000       1.554299        42.2946 
 509   0.0000       1.556544        42.3557 
 510   0.0000       1.561521        42.4911 
 511   0.0000       1.567171        42.6449 
 512   0.0000       1.571874        42.7729 
 513   0.0000       1.576979        42.9118 
 514   0.0000       1.578133        42.9432 
 515   0.0000       1.580332        43.0030 
 516   0.0000       1.588600        43.2280 
 517   0.0000       1.592582        43.3364 
 518   0.0000       1.595242        43.4087 
 519   0.0000       1.596524        43.4436 
 520   0.0000       1.600563        43.5535 
 521   0.0000       1.603351        43.6294 
 522   0.0000       1.606308        43.7099 
 523   0.0000       1.610810        43.8324 
 524   0.0000       1.613348        43.9014 
 525   0.0000       1.616105        43.9765 
 526   0.0000       1.620420        44.0939 
 527   0.0000       1.625385        44.2290 
 528   0.0000       1.630009        44.3548 
 529   0.0000       1.633919        44.4612 
 530   0.0000       1.639349        44.6089 
 531   0.0000       1.640165        44.6311 
 532   0.0000       1.644116        44.7387 
 533   0.0000       1.650307        44.9071 
 534   0.0000       1.653500        44.9940 
 535   0.0000       1.658906        45.1411 
 536   0.0000       1.660942        45.1965 
 537   0.0000       1.666288        45.3420 
 538   0.0000       1.667055        45.3629 
 539   0.0000       1.670800        45.4648 
 540   0.0000       1.675366        45.5890 
 541   0.0000       1.677532        45.6480 
 542   0.0000       1.682587        45.7855 
 543   0.0000       1.689345        45.9694 
 544   0.0000       1.695269        46.1306 
 545   0.0000       1.696868        46.1741 
 546   0.0000       1.702347        46.3232 
 547   0.0000       1.703596        46.3572 
 548   0.0000       1.706770        46.4436 
 549   0.0000       1.709358        46.5140 
 550   0.0000       1.709895        46.5286 
 551   0.0000       1.715982        46.6942 
 552   0.0000       1.720540        46.8183 
 553   0.0000       1.722748        46.8783 
 554   0.0000       1.726286        46.9746 
 555   0.0000       1.730067        47.0775 
 556   0.0000       1.741189        47.3802 
 557   0.0000       1.743491        47.4428 
 558   0.0000       1.745795        47.5055 
 559   0.0000       1.749459        47.6052 
 560   0.0000       1.750540        47.6346 
 561   0.0000       1.753364        47.7115 
 562   0.0000       1.762793        47.9680 
 563   0.0000       1.772107        48.2215 
 564   0.0000       1.775179        48.3051 
 565   0.0000       1.779461        48.4216 
 566   0.0000       1.784447        48.5573 
 567   0.0000       1.786247        48.6063 
 568   0.0000       1.791346        48.7450 
 569   0.0000       1.793776        48.8111 
 570   0.0000       1.800867        49.0041 
 571   0.0000       1.803525        49.0764 
 572   0.0000       1.812608        49.3236 
 573   0.0000       1.813416        49.3456 
 574   0.0000       1.818092        49.4728 
 575   0.0000       1.827006        49.7154 
 576   0.0000       1.831717        49.8436 
 577   0.0000       1.833523        49.8927 
 578   0.0000       1.835491        49.9462 
 579   0.0000       1.842788        50.1448 
 580   0.0000       1.846058        50.2338 
 581   0.0000       1.859751        50.6064 
 582   0.0000       1.861459        50.6529 
 583   0.0000       1.867755        50.8242 
 584   0.0000       1.874700        51.0132 
 585   0.0000       1.880052        51.1588 
 586   0.0000       1.885035        51.2944 
 587   0.0000       1.890581        51.4453 
 588   0.0000       1.893678        51.5296 
 589   0.0000       1.898466        51.6599 
 590   0.0000       1.900930        51.7269 
 591   0.0000       1.903744        51.8035 
 592   0.0000       1.914678        52.1010 
 593   0.0000       1.918704        52.2106 
 594   0.0000       1.921339        52.2823 
 595   0.0000       1.925992        52.4089 
 596   0.0000       1.930220        52.5240 
 597   0.0000       1.935678        52.6725 
 598   0.0000       1.937108        52.7114 
 599   0.0000       1.937510        52.7223 
 600   0.0000       1.951602        53.1058 
 601   0.0000       1.952087        53.1190 
 602   0.0000       1.956888        53.2496 
 603   0.0000       1.959275        53.3146 
 604   0.0000       1.969455        53.5916 
 605   0.0000       1.974703        53.7344 
 606   0.0000       1.978542        53.8389 
 607   0.0000       1.981549        53.9207 
 608   0.0000       1.989395        54.1342 
 609   0.0000       1.994012        54.2598 
 610   0.0000       2.004768        54.5525 
 611   0.0000       2.014098        54.8064 
 612   0.0000       2.016974        54.8846 
 613   0.0000       2.019019        54.9403 
 614   0.0000       2.024526        55.0901 
 615   0.0000       2.026708        55.1495 
 616   0.0000       2.033402        55.3317 
 617   0.0000       2.038200        55.4622 
 618   0.0000       2.039659        55.5019 
 619   0.0000       2.045404        55.6583 
 620   0.0000       2.054443        55.9042 
 621   0.0000       2.056625        55.9636 
 622   0.0000       2.063096        56.1397 
 623   0.0000       2.066588        56.2347 
 624   0.0000       2.068955        56.2991 
 625   0.0000       2.070976        56.3541 
 626   0.0000       2.072479        56.3950 
 627   0.0000       2.083527        56.6957 
 628   0.0000       2.091580        56.9148 
 629   0.0000       2.092801        56.9480 
 630   0.0000       2.103095        57.2281 
 631   0.0000       2.111544        57.4580 
 632   0.0000       2.117600        57.6228 
 633   0.0000       2.120473        57.7010 
 634   0.0000       2.127881        57.9026 
 635   0.0000       2.133942        58.0675 
 636   0.0000       2.139245        58.2118 
 637   0.0000       2.144672        58.3595 
 638   0.0000       2.148680        58.4685 
 639   0.0000       2.152183        58.5639 
 640   0.0000       2.157454        58.7073 
 641   0.0000       2.168330        59.0033 
 642   0.0000       2.172928        59.1284 
 643   0.0000       2.179225        59.2997 
 644   0.0000       2.180589        59.3369 
 645   0.0000       2.184047        59.4309 
 646   0.0000       2.188245        59.5452 
 647   0.0000       2.192449        59.6596 
 648   0.0000       2.199645        59.8554 
 649   0.0000       2.205252        60.0079 
 650   0.0000       2.206646        60.0459 
 651   0.0000       2.211919        60.1894 
 652   0.0000       2.219836        60.4048 
 653   0.0000       2.224015        60.5185 
 654   0.0000       2.230617        60.6982 
 655   0.0000       2.236030        60.8455 
 656   0.0000       2.240959        60.9796 
 657   0.0000       2.244175        61.0671 
 658   0.0000       2.247100        61.1467 
 659   0.0000       2.253190        61.3124 
 660   0.0000       2.263723        61.5990 
 661   0.0000       2.272045        61.8255 
 662   0.0000       2.276261        61.9402 
 663   0.0000       2.278509        62.0014 
 664   0.0000       2.279742        62.0349 
 665   0.0000       2.289359        62.2966 
 666   0.0000       2.294415        62.4342 
 667   0.0000       2.300917        62.6111 
 668   0.0000       2.309665        62.8492 
 669   0.0000       2.313276        62.9474 
 670   0.0000       2.316367        63.0316 
 671   0.0000       2.319448        63.1154 
 672   0.0000       2.327031        63.3217 
 673   0.0000       2.329974        63.4018 
[...]
 184   8.908     139.2   0.037803   0.033295  -8.400499  -8.171950     0.06 (  70->  85)    0.05 (  71->  85)    0.04 (  71->  83)
 185   8.923     138.9   0.007274   0.005747  -17.918155  -14.978040     0.06 (  71->  85)    0.05 (  70->  85)    0.04 (  73->  85)
 186   8.937     138.7   0.036554   0.037781  20.134300  19.557680     0.06 (  69->  85)    0.05 (  72-> 102)    0.05 (  69->  97)
 187   8.951     138.5   0.019944   0.018444  -9.550116  -8.038098     0.10 (  49->  80)    0.05 (  72->  87)    0.03 (  48->  80)
 188   8.958     138.4   0.059977   0.051110   5.706061   5.133330     0.06 (  77->  87)    0.04 (  79->  92)    0.04 (  73->  92)
 189   8.967     138.3   0.012907   0.011846  27.775205  28.233588     0.19 (  66->  85)    0.07 (  66->  84)    0.04 (  75-> 109)
 190   8.983     138.0   0.106908   0.090840  22.713406  20.853307     0.14 (  77->  87)    0.04 (  77->  90)    0.03 (  62->  84)
 191   8.985     138.0   0.019870   0.018322  10.644930   8.746821     0.19 (  77->  87)    0.03 (  72->  89)    0.03 (  69->  89)
 192   9.009     137.6   0.038641   0.031510   0.434195   0.740527     0.05 (  78->  91)    0.03 (  78->  95)    0.03 (  76->  97)
 193   9.015     137.5   0.025275   0.019304   4.048427   3.959014     0.05 (  52->  80)    0.03 (  65->  83)    0.03 (  62->  84)
 194   9.022     137.4   0.025379   0.019734  -59.355200  -53.027699     0.05 (  52->  80)    0.03 (  65->  83)    0.02 (  73->  92)
 195   9.036     137.2   0.069872   0.058022  32.050346  26.530967     0.04 (  64->  85)    0.03 (  52->  80)    0.03 (  60->  84)
 196   9.043     137.1   0.021306   0.019397  -61.604119  -58.529486     0.02 (  69-> 100)    0.02 (  69->  97)    0.02 (  79->  92)
 197   9.057     136.9   0.026339   0.021566  21.155707  19.185924     0.09 (  65->  85)    0.05 (  74->  98)    0.03 (  79->  98)
 198   9.079     136.6   0.000823   0.000666  -0.968103  -0.848141     0.25 (  58->  83)    0.16 (  54->  83)    0.09 (  51->  80)
 199   9.082     136.5   0.020054   0.016410  -15.165074  -14.705227     0.04 (  74->  98)    0.03 (  79->  93)    0.03 (  79->  91)
 200   9.099     136.3   0.013855   0.010957  -4.449927  -4.731871     0.08 (  77-> 117)    0.04 (  77->  99)    0.04 (  77->  87)
 201   9.100     136.2   0.043648   0.039006  -2.266282  -1.030526     0.08 (  78->  95)    0.08 (  74->  95)    0.07 (  76->  95)
 202   9.120     135.9   0.009861   0.009272  -25.535686  -24.716309     0.05 (  75-> 113)    0.04 (  76->  97)    0.03 (  79-> 116)
 203   9.126     135.9   0.037498   0.032062  11.639030  10.252302     0.23 (  66->  87)    0.06 (  77->  87)    0.06 (  76->  87)
 204   9.138     135.7   0.009545   0.007773  11.174843   8.583180     0.06 (  75-> 113)    0.02 (  72-> 104)    0.02 (  72->  84)
 205   9.140     135.7   0.002884   0.002374  -2.497166  -2.446759     0.06 (  60->  84)    0.03 (  61->  82)    0.03 (  56->  82)
 206   9.148     135.5   0.025135   0.020982  22.436031  21.304510     0.10 (  75-> 113)    0.03 (  75-> 111)    0.02 (  77-> 111)
 207   9.162     135.3   0.035212   0.027586  -24.357781  -18.227484     0.11 (  66->  87)    0.04 (  76->  87)    0.03 (  52->  83)
 208   9.166     135.3   0.000273   0.000431   3.998961   5.348453     0.07 (  66->  87)    0.03 (  79->  98)    0.03 (  74->  98)
 209   9.181     135.0   0.010534   0.008639  51.974544  46.993551     0.07 (  72-> 106)    0.03 (  79->  98)    0.03 (  49->  80)
 210   9.189     134.9   0.015007   0.014074  -16.564477  -16.278593     0.13 (  75-> 113)    0.04 (  79-> 116)    0.03 (  75-> 111)
 211   9.191     134.9   0.006684   0.005627  14.685405  12.261194     0.06 (  49->  80)    0.04 (  64->  81)    0.04 (  49->  81)
 212   9.203     134.7   0.013673   0.011631  -12.997496  -10.665980     0.10 (  75-> 113)    0.03 (  74->  94)    0.03 (  49->  80)
 213   9.212     134.6   0.060026   0.052350  -76.343489  -72.233039     0.04 (  79->  92)    0.03 (  78-> 106)    0.03 (  77-> 117)
 214   9.215     134.5   0.024936   0.022519   3.081845   1.479100     0.02 (  78-> 106)    0.02 (  77->  90)    0.02 (  75->  86)
 215   9.226     134.4   0.009540   0.009095  -10.855809  -11.086765     0.05 (  72-> 106)    0.04 (  77->  89)    0.03 (  78->  89)
 216   9.232     134.3   0.004606   0.003878  -12.085736  -11.440370     0.05 (  78->  89)    0.04 (  76->  89)    0.04 (  75->  86)
 217   9.239     134.2   0.012541   0.011000  15.851031  15.304031     0.02 (  76->  89)    0.02 (  60->  84)    0.02 (  79-> 118)
 218   9.262     133.9   0.053087   0.047641  -14.092576  -14.639599     0.05 (  50->  80)    0.04 (  68->  91)    0.03 (  70->  88)
 219   9.271     133.7   0.003070   0.003127   6.378479   7.284169     0.07 (  65->  85)    0.04 (  79-> 111)    0.03 (  74->  94)
 220   9.275     133.7   0.024695   0.021723  -50.585430  -47.169693     0.08 (  77->  87)    0.06 (  77->  90)    0.05 (  77->  91)
 221   9.282     133.6   0.010400   0.008597  22.226931  20.281427     0.05 (  61->  82)    0.04 (  50->  81)    0.03 (  76->  87)
 222   9.293     133.4   0.006571   0.005029  30.115680  26.236389     0.06 (  57->  84)    0.05 (  60->  86)    0.04 (  60->  88)
 223   9.308     133.2   0.006466   0.005823  24.832540  23.856010     0.07 (  60->  86)    0.05 (  57->  84)    0.05 (  79->  93)
 224   9.321     133.0   0.002652   0.002510   7.337749   6.724639     0.07 (  79->  92)    0.03 (  74->  94)    0.02 (  78->  92)
 225   9.326     132.9   0.003498   0.003332   3.843128   3.755391     0.07 (  77-> 117)    0.05 (  77-> 114)    0.03 (  70->  88)
 226   9.333     132.8   0.011133   0.008409  44.998891  40.047092     0.03 (  66->  89)    0.03 (  59->  84)    0.02 (  74-> 103)
 227   9.344     132.7   0.003295   0.002673  11.519636  10.892304     0.11 (  55->  83)    0.05 (  54->  83)    0.04 (  69-> 106)
 228   9.346     132.7   0.000874   0.000632  -4.296370  -5.694878     0.05 (  79->  93)    0.03 (  55->  83)    0.03 (  66->  89)
 229   9.356     132.5   0.004027   0.003606  -3.668851  -3.514426     0.08 (  66->  89)    0.04 (  53->  82)    0.03 (  59->  84)
 230   9.362     132.4   0.033092   0.026808  -84.199704  -75.625458     0.07 (  66->  89)    0.07 (  77->  89)    0.02 (  75-> 115)
 231   9.374     132.3   0.035869   0.031402  28.614908  20.346912     0.05 (  77->  89)    0.03 (  63->  89)    0.03 (  79->  99)
 232   9.384     132.1   0.066830   0.054901  16.907061  18.597515     0.11 (  77->  89)    0.08 (  79-> 120)    0.06 (  63->  89)
 233   9.387     132.1   0.014801   0.012291  -35.302030  -32.189865     0.19 (  77->  89)    0.04 (  55->  83)    0.03 (  77->  88)
 234   9.393     132.0   0.022948   0.019523  75.300415  70.805160     0.08 (  55->  83)    0.06 (  77->  89)    0.04 (  69-> 106)
 235   9.406     131.8   0.020688   0.016456  -54.236812  -47.313808     0.04 (  77-> 114)    0.03 (  77-> 117)    0.03 (  77->  89)
 236   9.409     131.8   0.015746   0.013582  43.111653  39.093033     0.05 (  72->  99)    0.02 (  72->  88)    0.02 (  77->  89)
 237   9.422     131.6   0.026680   0.024064  -11.282756  -8.134365     0.09 (  50->  80)    0.05 (  79-> 120)    0.04 (  76->  87)
 238   9.439     131.4   0.007287   0.005348  25.698545  22.114098     0.09 (  74->  84)    0.05 (  74->  86)    0.02 (  68->  86)
 239   9.452     131.2   0.008770   0.007055  -21.534326  -20.050428     0.05 (  54->  83)    0.02 (  79->  96)    0.02 (  45->  80)
 240   9.455     131.1   0.005778   0.004935   1.359733   2.022925     0.10 (  54->  83)    0.03 (  45->  80)    0.03 (  64->  81)
 241   9.466     131.0   0.016030   0.012698  -8.879084  -7.168767     0.06 (  76->  89)    0.06 (  75->  88)    0.06 (  77->  89)
 242   9.469     130.9   0.025768   0.023873  -1.872676  -0.682467     0.05 (  73->  96)    0.02 (  75->  88)    0.02 (  74-> 103)
 243   9.489     130.7   0.028651   0.024998  -47.391047  -43.534400     0.03 (  50->  80)    0.03 (  70->  97)    0.02 (  70->  96)
 244   9.494     130.6   0.021833   0.019132  -4.081094  -3.429086     0.04 (  74->  84)    0.04 (  73->  96)    0.02 (  50->  81)
 245   9.499     130.5   0.036286   0.030418  56.215714  51.360223     0.10 (  75->  88)    0.05 (  74->  84)    0.03 (  75->  89)
 246   9.505     130.4   0.000911   0.000681  -5.219838  -5.508280     0.10 (  74->  84)    0.04 (  72->  99)    0.03 (  74->  95)
 247   9.515     130.3   0.025153   0.021472  -3.120677  -2.796509     0.09 (  75->  88)    0.05 (  70->  83)    0.03 (  75->  91)
 248   9.523     130.2   0.019388   0.016596  -16.615675  -15.221543     0.06 (  45->  80)    0.04 (  59->  80)    0.03 (  74->  84)
 249   9.543     129.9   0.017052   0.015837  -20.658522  -19.428500     0.04 (  79-> 120)    0.03 (  74->  84)    0.02 (  45->  80)
 250   9.555     129.8   0.017682   0.015754   3.133574   0.525058     0.03 (  74-> 113)    0.03 (  74-> 105)    0.03 (  45->  80)
 251   9.558     129.7   0.024102   0.018696  57.403987  58.008149     0.11 (  79-> 120)    0.04 (  78-> 120)    0.02 (  74-> 105)
 252   9.567     129.6   0.005330   0.004299  -8.805664  -9.056099     0.16 (  45->  80)    0.10 (  54->  83)    0.05 (  63->  81)
 253   9.575     129.5   0.013014   0.009538  28.445281  24.470282     0.08 (  74->  86)    0.06 (  74->  84)    0.06 (  74->  85)
 254   9.586     129.3   0.002505   0.002205   3.322545   3.075810     0.02 (  74->  86)    0.02 (  78-> 117)    0.02 (  70->  91)
 255   9.601     129.1   0.002705   0.002235   2.305014   1.924167     0.04 (  50->  81)    0.03 (  79->  96)    0.02 (  71->  91)
 256   9.606     129.1   0.010068   0.008609  10.053851  13.616803     0.04 (  76-> 117)    0.03 (  79->  96)    0.02 (  70->  91)
 257   9.622     128.8   0.040958   0.034301  -9.938144  -7.857038     0.05 (  79-> 122)    0.04 (  79-> 121)    0.03 (  71->  89)
 258   9.634     128.7   0.024802   0.020410  -22.510315  -22.612832     0.04 (  79-> 122)    0.03 (  71->  88)    0.02 (  78-> 121)
 259   9.638     128.6   0.029981   0.024594  -60.751615  -55.427589     0.03 (  79-> 121)    0.03 (  75-> 112)    0.02 (  78-> 118)
 260   9.644     128.6   0.003472   0.003092  10.254473   9.401941     0.12 (  69->  84)    0.06 (  63->  81)    0.05 (  69->  85)
 261   9.656     128.4   0.006218   0.004783  27.916171  25.150211     0.08 (  69->  84)    0.04 (  69->  85)    0.04 (  59->  80)
 262   9.671     128.2   0.021378   0.018534  -17.444886  -15.487038     0.03 (  75-> 112)    0.02 (  75-> 115)    0.02 (  76->  92)
 263   9.679     128.1   0.005101   0.004305  -6.869206  -5.452074     0.04 (  74->  86)    0.03 (  52->  83)    0.02 (  40->  80)
 264   9.683     128.0   0.062150   0.049569  -10.576942  -14.239281     0.03 (  56->  84)    0.02 (  73->  85)    0.02 (  70->  85)
 265   9.690     128.0   0.054166   0.043708  -20.004988  -15.508250     0.04 (  72->  94)    0.03 (  64->  89)    0.03 (  72->  89)
 266   9.695     127.9   0.071967   0.059631  80.342577  73.591044     0.04 (  70-> 102)    0.03 (  71-> 102)    0.02 (  70->  86)
 267   9.700     127.8   0.010224   0.008737   7.223909   6.162561     0.05 (  48->  81)    0.04 (  60->  82)    0.03 (  60->  80)
 268   9.706     127.7   0.099927   0.081189  -52.948073  -48.095040     0.03 (  74->  86)    0.02 (  79-> 115)    0.02 (  63->  85)
 269   9.719     127.6   0.018427   0.015439  -6.877186  -7.644673     0.03 (  76->  93)    0.03 (  78->  92)    0.03 (  78->  93)
 270   9.724     127.5   0.208791   0.180760  24.583533  23.308803     0.06 (  69->  99)    0.03 (  72->  99)    0.02 (  55->  85)
 271   9.731     127.4   0.010702   0.010414   9.137537   9.015342     0.03 (  75->  90)    0.03 (  78->  92)    0.03 (  76->  92)
 272   9.734     127.4   0.039236   0.031655   1.858288   2.211110     0.10 (  75->  90)    0.06 (  70->  85)    0.05 (  73->  85)
 273   9.747     127.2   0.025251   0.018797  31.079049  21.076647     0.07 (  75->  90)    0.04 (  74->  86)    0.04 (  75-> 115)
 274   9.751     127.2   0.045385   0.036566  -34.003455  -27.835112     0.08 (  75->  90)    0.03 (  75->  91)    0.03 (  75->  86)
 275   9.753     127.1   0.003190   0.002147  -2.653589  -3.169123     0.26 (  64->  87)    0.06 (  64->  95)    0.05 (  48->  80)
 276   9.769     126.9   0.004484   0.004021   3.747151   5.234829     0.04 (  64->  87)    0.03 (  70->  83)    0.03 (  67->  87)
 277   9.772     126.9   0.014212   0.012099  -7.444076  -6.256566     0.03 (  79->  97)    0.03 (  75->  90)    0.03 (  73->  91)
 278   9.780     126.8   0.005335   0.004809  21.829838  21.262220     0.03 (  70->  91)    0.02 (  67->  88)    0.02 (  52->  83)
 279   9.790     126.6   0.012862   0.010113  -3.813892  -3.266589     0.09 (  62->  80)    0.03 (  59->  80)    0.02 (  63->  81)
 280   9.800     126.5   0.005137   0.004070  -14.480232  -11.888833     0.09 (  62->  80)    0.06 (  59->  80)    0.03 (  62->  81)
 281   9.817     126.3   0.010737   0.009106  -4.540132  -4.156803     0.04 (  74-> 103)    0.04 (  74->  98)    0.03 (  74-> 113)
 282   9.820     126.3   0.023229   0.020478  33.357971  30.569090     0.03 (  74-> 103)    0.02 (  70->  90)    0.02 (  77-> 121)
 283   9.837     126.0   0.042523   0.037043   7.327046   6.812453     0.04 (  78->  95)    0.03 (  78->  94)    0.03 (  71->  95)
 284   9.848     125.9   0.017672   0.015855  -16.181048  -15.587612     0.10 (  75-> 115)    0.04 (  75->  99)    0.03 (  75->  97)
 285   9.852     125.9   0.058610   0.050040  -48.214005  -45.423296     0.03 (  78->  94)    0.03 (  76->  89)    0.03 (  79-> 122)
 286   9.862     125.7   0.056598   0.049365  -21.169250  -22.125031     0.05 (  75-> 115)    0.03 (  78->  95)    0.02 (  71->  95)
 287   9.872     125.6   0.021146   0.017387  53.181058  48.656268     0.06 (  75-> 115)    0.03 (  79-> 121)    0.02 (  79-> 105)
 288   9.875     125.6   0.006527   0.005554  19.265548  17.833054     0.09 (  54->  87)    0.08 (  43->  80)    0.06 (  41->  80)
 289   9.885     125.4   0.053019   0.044014  -38.796659  -34.775790     0.11 (  79->  96)    0.07 (  79->  97)    0.03 (  78-> 122)
 290   9.901     125.2   0.045960   0.040807  -9.596896  -10.091796     0.04 (  72->  90)    0.04 (  72-> 100)    0.02 (  72->  91)
 291   9.903     125.2   0.016858   0.016417  -1.306877  -0.929977     0.04 (  40->  80)    0.03 (  79->  97)    0.02 (  66->  95)
 292   9.911     125.1   0.015488   0.014144   7.216234   6.572576     0.03 (  72->  94)    0.02 (  69-> 100)    0.02 (  65->  87)
 293   9.923     125.0   0.004890   0.003289  -20.683799  -15.913743     0.03 (  70->  85)    0.02 (  77-> 121)    0.02 (  65->  85)
 294   9.928     124.9   0.013173   0.011173   3.064495   2.437988     0.03 (  66->  90)    0.03 (  52->  83)    0.03 (  66->  91)
 295   9.936     124.8   0.001562   0.001529   5.971438   6.156871     0.09 (  69->  95)    0.09 (  72->  95)    0.07 (  72->  87)
 296   9.942     124.7   0.008185   0.006254   0.281995   0.053708     0.03 (  67->  91)    0.02 (  68->  90)    0.02 (  78-> 102)
 297   9.959     124.5   0.008575   0.006725  -0.936427  -0.520042     0.10 (  72->  87)    0.05 (  69->  87)    0.04 (  62->  80)
 298   9.968     124.4   0.050839   0.042154  21.776217  18.585234     0.07 (  73->  87)    0.05 (  69->  87)    0.03 (  72->  87)
 299   9.980     124.2   0.000718   0.000524  -0.560678  -0.472421     0.03 (  62->  80)    0.02 (  47->  81)    0.02 (  73->  99)
 300   9.984     124.2   0.018147   0.015397   6.283970   5.530742     0.03 (  79->  97)    0.02 (  78->  97)    0.02 (  79->  99)
 301   9.990     124.1   0.019460   0.016656  -4.742679  -4.086760     0.04 (  69->  87)    0.03 (  47->  81)    0.03 (  44->  81)
 302   9.999     124.0   0.004305   0.003652  11.845770  11.620232     0.04 (  49->  81)    0.03 (  45->  81)    0.03 (  69->  95)

sTD-DFT done

Total run time:       50.468 sec

           *** ORCA-CIS/TD-DFT FINISHED WITHOUT ERROR ***


-------------------------------------------------------------------------------
                          DFT DISPERSION CORRECTION                            
                                                                               
                              DFTD3 V3.1  Rev 1                                
                              USING zero damping                               
-------------------------------------------------------------------------------
The omegaB97X-D3 functional is recognized. Fit by Chai et al.
Active option DFTDOPT                   ...         3   

molecular C6(AA) [au] = 49423.789346 


            DFT-D V3
 parameters
 s6 scaling factor         :     1.0000 
 rs6 scaling factor        :     1.2810 
 s8 scaling factor         :     1.0000 
 rs8 scaling factor        :     1.0940 
 Damping factor alpha6     :    14.0000 
 Damping factor alpha8     :    16.0000 
 ad hoc parameters k1-k3   :    16.0000     1.3333    -4.0000 

 Edisp/kcal,au: -15.777426245600  -0.025142926465 
 E6   /kcal   :  -7.356868185 
 E8   /kcal   :  -8.420558061 
 % E8         :  53.370923303 

-------------------------   ----------------
Dispersion correction           -0.025142926
-------------------------   ----------------


-------------------------   --------------------
FINAL SINGLE POINT ENERGY     -2833.170133220932
-------------------------   --------------------


                            ***************************************
                            *     ORCA property calculations      *
                            ***************************************

                                    ---------------------
                                    Active property flags
                                    ---------------------
   (+) Dipole Moment
   (+) Quadrupole Moment


------------------------------------------------------------------------------
                       ORCA ELECTRIC PROPERTIES CALCULATION
------------------------------------------------------------------------------

Dipole Moment Calculation                       ... on
Quadrupole Moment Calculation                   ... on
Polarizability Calculation                      ... off
GBWName                                         ... total_job2.gbw
Electron density file                           ... total_job2.scfp.tmp

-------------
DIPOLE MOMENT
-------------
                                X             Y             Z
Electronic contribution:     21.55511       4.11090      -1.72572
Nuclear contribution   :    -22.59509      -3.59189       1.45150
                        -----------------------------------------
Total Dipole Moment    :     -1.03998       0.51901      -0.27422
                        -----------------------------------------
Magnitude (a.u.)       :      1.19420
Magnitude (Debye)      :      3.03542


------------------------
QUADRUPOLE MOMENT (A.U.)
------------------------

                XX           YY           ZZ           XY           XZ           YZ
  NUC     24362.76121   3863.45918    938.04291   1861.87911   1854.44703    340.83180
  EL     -24481.42292  -4019.35068  -1111.26425  -1851.65120  -1847.53329   -338.09917
  TOT      -118.66171   -155.89150   -173.22134     10.22791      6.91374      2.73263

--------------------------------------------------------------------------
[[7421,1],7]: A high-performance Open MPI point-to-point messaging module
was unable to find any relevant network interfaces:

Module: OpenFabrics (openib)
  Host: cx1-136-9-3

Another transport will be used instead, although this may result in
lower performance.
--------------------------------------------------------------------------

Timings for individual modules:

Sum of individual times         ...      226.345 sec (=   3.772 min)
GTO integral calculation        ...        6.836 sec (=   0.114 min)   3.0 %
SCF iterations                  ...      167.561 sec (=   2.793 min)  74.0 %
CIS module                      ...       51.948 sec (=   0.866 min)  23.0 %



                             ****ORCA TERMINATED NORMALLY****
TOTAL RUN TIME: 0 days 0 hours 14 minutes 21 seconds 926 msec
