
                                 *****************
                                 * O   R   C   A *
                                 *****************

           --- An Ab Initio, DFT and Semiempirical electronic structure package ---

                  #######################################################
                  #                        -***-                        #
                  #  Department of molecular theory and spectroscopy    #
                  #              Directorship: Frank Neese              #
                  # Max Planck Institute for Chemical Energy Conversion #
                  #                  D-45470 Muelheim/Ruhr              #
                  #                       Germany                       #
                  #                                                     #
                  #                  All rights reserved                #
                  #                        -***-                        #
                  #######################################################


                         Program Version 4.0.0 -  RELEASE  -


 With contributions from (in alphabetic order):
   Daniel Aravena         : Magnetic Properties
   Michael Atanasov       : Ab Initio Ligand Field Theory
   Ute Becker             : Parallelization
   Martin Brehm           : Molecular dynamics
   Dmytro Bykov           : SCF Hessian
   Vijay G. Chilkuri      : MRCI spin determinant printing
   Dipayan Datta          : RHF DLPNO-CCSD density
   Achintya Kumar Dutta   : EOM-CC, STEOM-CC
   Dmitry Ganyushin       : Spin-Orbit,Spin-Spin,Magnetic field MRCI
   Yang Guo               : DLPNO-NEVPT2, CIM, IAO-localization
   Andreas Hansen         : Spin unrestricted coupled pair/coupled cluster methods
   Lee Huntington         : MR-EOM, pCC
   Robert Izsak           : Overlap fitted RIJCOSX, COSX-SCS-MP3, EOM
   Christian Kollmar      : KDIIS, OOCD, Brueckner-CCSD(T), CCSD density
   Simone Kossmann        : Meta GGA functionals, TD-DFT gradient, OOMP2, MP2 Hessian
   Martin Krupicka        : AUTO-CI
   Dagmar Lenk            : GEPOL surface
   Dimitrios Liakos       : Extrapolation schemes; parallel MDCI
   Dimitrios Manganas     : ROCIS; embedding schemes
   Dimitrios Pantazis     : SARC Basis sets
   Taras Petrenko         : DFT Hessian,TD-DFT gradient, ASA, ECA, R-Raman, ABS, FL, XAS/XES, NRVS
   Peter Pinski           : DLPNO-MP2
   Christoph Reimann      : Effective Core Potentials
   Marius Retegan         : Local ZFS, SOC
   Christoph Riplinger    : Optimizer, TS searches, QM/MM, DLPNO-CCSD(T), (RO)-DLPNO pert. Triples
   Tobias Risthaus        : Range-separated hybrids, TD-DFT gradient, RPA, STAB
   Michael Roemelt        : Restricted open shell CIS
   Masaaki Saitow         : Open-shell DLPNO
   Barbara Sandhoefer     : DKH picture change effects
   Kantharuban Sivalingam : CASSCF convergence, NEVPT2, FIC-MRCI
   Georgi Stoychev        : AutoAux
   Boris Wezisla          : Elementary symmetry handling
   Frank Wennmohs         : Technical directorship


 We gratefully acknowledge several colleagues who have allowed us to
 interface, adapt or use parts of their codes:
   Stefan Grimme, W. Hujo, H. Kruse,             : VdW corrections, initial TS optimization,
                  C. Bannwarth                     DFT functionals, gCP, sTDA/sTD-DF
   Ed Valeev                                     : LibInt (2-el integral package), F12 methods
   Garnet Chan, S. Sharma, J. Yang, R. Olivares  : DMRG
   Ulf Ekstrom                                   : XCFun DFT Library
   Mihaly Kallay                                 : mrcc  (arbitrary order and MRCC methods)
   Jiri Pittner, Ondrej Demel                    : Mk-CCSD
   Frank Weinhold                                : gennbo (NPA and NBO analysis)
   Christopher J. Cramer and Donald G. Truhlar   : smd solvation model


 Your calculation uses the libint2 library for the computation of 2-el integrals
 For citations please refer to: http://libint.valeyev.net

 This ORCA versions uses:
   CBLAS   interface :  Fast vector & matrix operations
   LAPACKE interface :  Fast linear algebra routines
   SCALAPACK package :  Parallel linear algebra routines


Your calculation utilizes the atom-pairwise dispersion correction
with the zero-damping scheme (D30)
Cite in your paper:
S.Grimme, J.Antony, S.Ehrlich and H.Krieg, J.Chem.Phys., 132, (2010), 154104 
   

XCFun DFT library Copyright 2009-2010 Ulf Ekstrom and contributors.
See http://admol.org/xcfun for more information. This is free soft-
ware; see the source code for copying conditions. There is ABSOLUTELY
NO WARRANTY; not even for MERCHANTABILITY or FITNESS FOR A PARTICULAR
PURPOSE. For details see the documentation. Scientific users of this 
library should cite U. Ekstrom, L. Visscher, R. Bast, A. J. Thorvald-
sen and K. Ruud; J.Chem.Theor.Comp. 2010, DOI: 10.1021/ct100117s
XCFun Version 0.99 
Your calculation utilizes the basis: def2-TZVP
   F. Weigend and R. Ahlrichs, Phys. Chem. Chem. Phys. 7, 3297 (2005).

Your calculation utilizes the auxiliary basis: def2/J
   F. Weigend, Phys. Chem. Chem. Phys. 8, 1057 (2006).

================================================================================
                                        WARNINGS
                       Please study these warnings very carefully!
================================================================================

Warning: TCutStore was < 0. Adjusted to Thresh (uncritical)
INFO   : Checking CIS options ...

WARNING: CIS/ROCIS methods need fully converged wavefunctions
  ===> : Setting SCFConvForced true
         You can overwrite this default with %scf ConvForced false 


INFO   : the flag for use of LIBINT has been found!

Your calculation utilizes the atom-pairwise dispersion correction
with the zero-damping scheme (D30)
Cite in your paper:
S.Grimme, J.Antony, S.Ehrlich and H.Krieg, J.Chem.Phys., 132, (2010), 154104 
   

XCFun DFT library Copyright 2009-2010 Ulf Ekstrom and contributors.
See http://admol.org/xcfun for more information. This is free soft-
ware; see the source code for copying conditions. There is ABSOLUTELY
NO WARRANTY; not even for MERCHANTABILITY or FITNESS FOR A PARTICULAR
PURPOSE. For details see the documentation. Scientific users of this 
library should cite U. Ekstrom, L. Visscher, R. Bast, A. J. Thorvald-
sen and K. Ruud; J.Chem.Theor.Comp. 2010, DOI: 10.1021/ct100117s
XCFun Version 0.99 
Your calculation utilizes the basis: def2-TZVP
   F. Weigend and R. Ahlrichs, Phys. Chem. Chem. Phys. 7, 3297 (2005).

Your calculation utilizes the auxiliary basis: def2/J
   F. Weigend, Phys. Chem. Chem. Phys. 8, 1057 (2006).

================================================================================
                                        WARNINGS
                       Please study these warnings very carefully!
================================================================================

INFO   : Checking CIS options ...

INFO   : the flag for use of LIBINT has been found!

================================================================================
                                       INPUT FILE
================================================================================
NAME = total.inp
|  1> # 
|  2> !wB97X-D3 def2-TZVP def2/J RIJCOSX Grid5 FinalGrid6 TightSCF
|  3> %pal 
|  4>  nprocs 24
|  5> end
|  6> %tddft
|  7>   Mode sTDDFT
|  8>   nroots 2
|  9>   Ethresh 10.0
| 10>   maxcore 5000
| 11>   triplets true
| 12> end
| 13> * xyz 0 1 
| 14> C -4.01440699 -2.41403164 -1.71822362
| 15> C -3.54478687 -1.40494586 -0.88049207
| 16> C -4.43145080 -0.80752227 0.03430504
| 17> C -5.78978058 -1.23271187 0.04230023
| 18> C -6.26299578 -2.25507004 -0.79434679
| 19> C -5.35252044 -2.84304737 -1.66954975
| 20> C -4.32816988 0.26417630 1.01133586
| 21> C -5.64069447 0.45582594 1.52949955
| 22> N -6.49568722 -0.46925891 0.95620694
| 23> C -5.95346221 1.46530664 2.45308810
| 24> C -4.91877793 2.31226702 2.84688715
| 25> C -3.61480511 2.13783062 2.36309780
| 26> C -3.27970124 1.10606686 1.46696637
| 27> H -2.82834582 2.80127346 2.71441278
| 28> H -7.48952340 -0.53869907 1.13724201
| 29> H -5.12098618 3.11584629 3.54978840
| 30> H -2.51115399 -1.07996737 -0.95409652
| 31> H -7.30324549 -2.56850047 -0.76723829
| 32> H -5.68349181 -3.63686577 -2.33390243
| 33> H -3.33466923 -2.87934780 -2.42669391
| 34> N 2.89110017 0.55714381 0.00916029
| 35> C 1.90556072 1.51349277 0.22192348
| 36> C 2.32233469 2.82556552 0.10000122
| 37> S 4.02966197 2.88468550 -0.30022763
| 38> C 4.06690431 1.07452315 -0.27531853
| 39> C 0.54932542 1.09088543 0.54585423
| 40> S -0.76903366 2.25786981 0.82220012
| 41> C -1.87656168 0.91002133 1.08309290
| 42> C -1.17483501 -0.27617730 0.96732084
| 43> N 0.16291320 -0.16880419 0.66729018
| 44> H 1.72640297 3.72062553 0.22273677
| 45> H -1.60922491 -1.25954496 1.13393080
| 46> C 7.60455067 -1.26296122 -1.05895068
| 47> C 7.68567995 0.13923809 -1.10463412
| 48> C 6.53808681 0.90932512 -0.85063755
| 49> C 5.28116821 0.30607810 -0.54494888
| 50> C 5.24447094 -1.12104731 -0.50921638
| 51> C 6.38726450 -1.89860232 -0.76190228
| 52> O 4.08738695 -1.74220061 -0.22660543
| 53> O 6.67237100 2.24814208 -0.90755010
| 54> O 8.69796698 -2.01897524 -1.30053429
| 55> H 9.46146776 -1.45822170 -1.48994285
| 56> H 5.82072049 2.69357148 -0.71671210
| 57> H 4.20180014 -2.70095317 -0.23457670
| 58> H 6.33364422 -2.98167993 -0.72872094
| 59> H -6.96368893 1.59071534 2.83213597
| 60> H 8.62081756 0.63896020 -1.33305517
| 61> *
| 62> $new_job
| 63> # 
| 64> !wB97X-D3 def2-TZVP def2/J RIJCOSX Grid5 FinalGrid6 TightSCF
| 65> %pal 
| 66>  nprocs 24
| 67> end
| 68> %elprop
| 69>    dipole     true
| 70>    quadrupole true
| 71> end
| 72> %tddft
| 73>   Mode sTDDFT
| 74>   nroots 2
| 75>   Ethresh 10.0
| 76>   maxcore 5000
| 77> end
| 78> * xyz 0 1 
| 79> C -4.01440699 -2.41403164 -1.71822362
| 80> C -3.54478687 -1.40494586 -0.88049207
| 81> C -4.43145080 -0.80752227 0.03430504
| 82> C -5.78978058 -1.23271187 0.04230023
| 83> C -6.26299578 -2.25507004 -0.79434679
| 84> C -5.35252044 -2.84304737 -1.66954975
| 85> C -4.32816988 0.26417630 1.01133586
| 86> C -5.64069447 0.45582594 1.52949955
| 87> N -6.49568722 -0.46925891 0.95620694
| 88> C -5.95346221 1.46530664 2.45308810
| 89> C -4.91877793 2.31226702 2.84688715
| 90> C -3.61480511 2.13783062 2.36309780
| 91> C -3.27970124 1.10606686 1.46696637
| 92> H -2.82834582 2.80127346 2.71441278
| 93> H -7.48952340 -0.53869907 1.13724201
| 94> H -5.12098618 3.11584629 3.54978840
| 95> H -2.51115399 -1.07996737 -0.95409652
| 96> H -7.30324549 -2.56850047 -0.76723829
| 97> H -5.68349181 -3.63686577 -2.33390243
| 98> H -3.33466923 -2.87934780 -2.42669391
| 99> N 2.89110017 0.55714381 0.00916029
|100> C 1.90556072 1.51349277 0.22192348
|101> C 2.32233469 2.82556552 0.10000122
|102> S 4.02966197 2.88468550 -0.30022763
|103> C 4.06690431 1.07452315 -0.27531853
|104> C 0.54932542 1.09088543 0.54585423
|105> S -0.76903366 2.25786981 0.82220012
|106> C -1.87656168 0.91002133 1.08309290
|107> C -1.17483501 -0.27617730 0.96732084
|108> N 0.16291320 -0.16880419 0.66729018
|109> H 1.72640297 3.72062553 0.22273677
|110> H -1.60922491 -1.25954496 1.13393080
|111> C 7.60455067 -1.26296122 -1.05895068
|112> C 7.68567995 0.13923809 -1.10463412
|113> C 6.53808681 0.90932512 -0.85063755
|114> C 5.28116821 0.30607810 -0.54494888
|115> C 5.24447094 -1.12104731 -0.50921638
|116> C 6.38726450 -1.89860232 -0.76190228
|117> O 4.08738695 -1.74220061 -0.22660543
|118> O 6.67237100 2.24814208 -0.90755010
|119> O 8.69796698 -2.01897524 -1.30053429
|120> H 9.46146776 -1.45822170 -1.48994285
|121> H 5.82072049 2.69357148 -0.71671210
|122> H 4.20180014 -2.70095317 -0.23457670
|123> H 6.33364422 -2.98167993 -0.72872094
|124> H -6.96368893 1.59071534 2.83213597
|125> H 8.62081756 0.63896020 -1.33305517
|126> *
|127> 
|128>                          ****END OF INPUT****
================================================================================


                 $$$$$$$$$$$$$$$$$$$$$$$$$$$$$$$$$$$$$$$$$$$$$$ 
                 $ THERE ARE  2 JOBS TO BE PROCESSED THIS RUN $
                 $$$$$$$$$$$$$$$$$$$$$$$$$$$$$$$$$$$$$$$$$$$$$$ 




                 $$$$$$$$$$$$$$$$  JOB NUMBER  1 $$$$$$$$$$$$$$


                       ****************************
                       * Single Point Calculation *
                       ****************************

---------------------------------
CARTESIAN COORDINATES (ANGSTROEM)
---------------------------------
  C     -4.014407   -2.414032   -1.718224
  C     -3.544787   -1.404946   -0.880492
  C     -4.431451   -0.807522    0.034305
  C     -5.789781   -1.232712    0.042300
  C     -6.262996   -2.255070   -0.794347
  C     -5.352520   -2.843047   -1.669550
  C     -4.328170    0.264176    1.011336
  C     -5.640694    0.455826    1.529500
  N     -6.495687   -0.469259    0.956207
  C     -5.953462    1.465307    2.453088
  C     -4.918778    2.312267    2.846887
  C     -3.614805    2.137831    2.363098
  C     -3.279701    1.106067    1.466966
  H     -2.828346    2.801273    2.714413
  H     -7.489523   -0.538699    1.137242
  H     -5.120986    3.115846    3.549788
  H     -2.511154   -1.079967   -0.954097
  H     -7.303245   -2.568500   -0.767238
  H     -5.683492   -3.636866   -2.333902
  H     -3.334669   -2.879348   -2.426694
  N      2.891100    0.557144    0.009160
  C      1.905561    1.513493    0.221923
  C      2.322335    2.825566    0.100001
  S      4.029662    2.884685   -0.300228
  C      4.066904    1.074523   -0.275319
  C      0.549325    1.090885    0.545854
  S     -0.769034    2.257870    0.822200
  C     -1.876562    0.910021    1.083093
  C     -1.174835   -0.276177    0.967321
  N      0.162913   -0.168804    0.667290
  H      1.726403    3.720626    0.222737
  H     -1.609225   -1.259545    1.133931
  C      7.604551   -1.262961   -1.058951
  C      7.685680    0.139238   -1.104634
  C      6.538087    0.909325   -0.850638
  C      5.281168    0.306078   -0.544949
  C      5.244471   -1.121047   -0.509216
  C      6.387264   -1.898602   -0.761902
  O      4.087387   -1.742201   -0.226605
  O      6.672371    2.248142   -0.907550
  O      8.697967   -2.018975   -1.300534
  H      9.461468   -1.458222   -1.489943
  H      5.820720    2.693571   -0.716712
  H      4.201800   -2.700953   -0.234577
  H      6.333644   -2.981680   -0.728721
  H     -6.963689    1.590715    2.832136
  H      8.620818    0.638960   -1.333055

----------------------------
CARTESIAN COORDINATES (A.U.)
----------------------------
  NO LB      ZA    FRAG     MASS         X           Y           Z
   0 C     6.0000    0    12.011   -7.586130   -4.561859   -3.246972
   1 C     6.0000    0    12.011   -6.698676   -2.654963   -1.663889
   2 C     6.0000    0    12.011   -8.374228   -1.525996    0.064827
   3 C     6.0000    0    12.011  -10.941100   -2.329488    0.079936
   4 C     6.0000    0    12.011  -11.835347   -4.261465   -1.501098
   5 C     6.0000    0    12.011  -10.114798   -5.372581   -3.154992
   6 C     6.0000    0    12.011   -8.179056    0.499221    1.911148
   7 C     6.0000    0    12.011  -10.659368    0.861386    2.890335
   8 N     7.0000    0    14.007  -12.275070   -0.886771    1.806969
   9 C     6.0000    0    12.011  -11.250413    2.769028    4.635665
  10 C     6.0000    0    12.011   -9.295143    4.369551    5.379837
  11 C     6.0000    0    12.011   -6.830992    4.039914    4.465608
  12 C     6.0000    0    12.011   -6.197737    2.090163    2.772165
  13 H     1.0000    0     1.008   -5.344799    5.293640    5.129497
  14 H     1.0000    0     1.008  -14.153148   -1.017994    2.149076
  15 H     1.0000    0     1.008   -9.677261    5.888096    6.708128
  16 H     1.0000    0     1.008   -4.745393   -2.040843   -1.802981
  17 H     1.0000    0     1.008  -13.801134   -4.853762   -1.449870
  18 H     1.0000    0     1.008  -10.740243   -6.872680   -4.410436
  19 H     1.0000    0     1.008   -6.301612   -5.441179   -4.585787
  20 N     7.0000    0    14.007    5.463388    1.052849    0.017310
  21 C     6.0000    0    12.011    3.600988    2.860087    0.419375
  22 C     6.0000    0    12.011    4.388577    5.339545    0.188975
  23 S    16.0000    0    32.060    7.614958    5.451266   -0.567348
  24 C     6.0000    0    12.011    7.685335    2.030554   -0.520277
  25 C     6.0000    0    12.011    1.038075    2.061475    1.031515
  26 S    16.0000    0    32.060   -1.453263    4.266756    1.553733
  27 C     6.0000    0    12.011   -3.546188    1.719691    2.046749
  28 C     6.0000    0    12.011   -2.220116   -0.521899    1.827971
  29 N     7.0000    0    14.007    0.307861   -0.318994    1.260996
  30 H     1.0000    0     1.008    3.262429    7.030963    0.420911
  31 H     1.0000    0     1.008   -3.040994   -2.380195    2.142819
  32 C     6.0000    0    12.011   14.370518   -2.386651   -2.001127
  33 C     6.0000    0    12.011   14.523830    0.263122   -2.087456
  34 C     6.0000    0    12.011   12.355194    1.718375   -1.607472
  35 C     6.0000    0    12.011    9.979962    0.578404   -1.029804
  36 C     6.0000    0    12.011    9.910614   -2.118472   -0.962280
  37 C     6.0000    0    12.011   12.070181   -3.587838   -1.439787
  38 O     8.0000    0    15.999    7.724042   -3.292282   -0.428222
  39 O     8.0000    0    15.999   12.608954    4.248373   -1.715021
  40 O     8.0000    0    15.999   16.436776   -3.815310   -2.457654
  41 H     1.0000    0     1.008   17.879583   -2.755640   -2.815584
  42 H     1.0000    0     1.008   10.999568    5.090112   -1.354390
  43 H     1.0000    0     1.008    7.940252   -5.104062   -0.443286
  44 H     1.0000    0     1.008   11.968853   -5.634558   -1.377083
  45 H     1.0000    0     1.008  -13.159465    3.006016    5.351961
  46 H     1.0000    0     1.008   16.290984    1.207460   -2.519109

--------------------------------
INTERNAL COORDINATES (ANGSTROEM)
--------------------------------
 C      0   0   0     0.000000000000     0.00000000     0.00000000
 C      1   0   0     1.393051082471     0.00000000     0.00000000
 C      2   1   0     1.407103984472   119.08367340     0.00000000
 C      3   2   1     1.423344621041   118.56600680   358.22892555
 C      4   3   2     1.403255888764   122.41948328     2.26793251
 C      5   4   3     1.393076776971   117.49545576   358.96753565
 C      3   2   1     1.453889265593   134.83733522   182.09354156
 C      7   3   2     1.424058985261   106.15573784   174.78252624
 N      8   7   3     1.384001083429   109.19028549     2.27890218
 C      8   7   3     1.403527966429   122.79441508   183.57368220
 C     10   8   7     1.393912169525   117.22695849     0.91375441
 C     11  10   8     1.401722264972   121.15826114   358.45229260
 C     12  11  10     1.407083011045   122.18178515   359.73718088
 H     12  11  10     1.087242765875   119.04190331   181.68933720
 H      9   8   7     1.012573940543   125.31818878   181.29309362
 H     11  10   8     1.086599276087   119.60190418   179.15253084
 H      2   1   3     1.086013611627   119.79244966   181.08837667
 H      5   4   3     1.086781010313   121.20053586   179.59721589
 H      6   5   4     1.086763168018   119.55860673   180.10916958
 H      1   2   3     1.086504810362   119.43575075   180.00556730
 N     17   2   1     5.726460224862   166.41703951   225.31973524
 C     21  17   2     1.389661655159    63.47773163   282.47012677
 C     22  21  17     1.382063848325   115.21185204   205.40076381
 S     23  22  21     1.754606721017   110.21498977     0.00000000
 C     21  17   2     1.315722218452   156.79637889   194.77219235
 C     22  21  17     1.457018285261   119.64130459    25.34703622
 S     26  22  21     1.782214986443   122.21605070   180.38035437
 C     13  12  11     1.467853301812   119.48163781   184.95755551
 C     28  13  12     1.383072911701   128.42122152   136.80302509
 N     26  22  21     1.323207856859   124.63572386     0.44779035
 H     23  22  21     1.082280486582   127.52304421   179.99861068
 H     29  28  13     1.087871967985   124.04559977     1.54700823
 C     25  21  17     4.311943215643   124.00803872   256.83872999
 C     33  25  21     1.405287102954    60.81496032   179.96860286
 C     34  33  25     1.405175542885   119.59112293     0.00000000
 C     35  34  33     1.427304066109   121.75473595     0.00000000
 C     36  35  34     1.428044269989   116.76709377     0.00000000
 C     33  25  21     1.405013515816    59.73609222   359.96888263
 O     37  36  35     1.343333067811   119.30761689   180.00234809
 O     35  34  33     1.346737589293   117.11265084   179.99962124
 O     33  25  21     1.351102907269   178.80120510     0.00000000
 H     41  33  38     0.966050504003   110.47854748   179.99920962
 H     40  35  34     0.979864829357   110.91697762   179.99655066
 H     39  37  36     0.965588106026   110.81334220   180.03520508
 H     38  33  25     1.084911630058   120.06158941   180.00100538
 H     10   8   7     1.086260859826   121.32598498   179.93367883
 H     34  33  25     1.084610857839   121.08759194   180.00012336

---------------------------
INTERNAL COORDINATES (A.U.)
---------------------------
 C      0   0   0     0.000000000000     0.00000000     0.00000000
 C      1   0   0     2.632485036432     0.00000000     0.00000000
 C      2   1   0     2.659041172601   119.08367340     0.00000000
 C      3   2   1     2.689731527957   118.56600680   358.22892555
 C      4   3   2     2.651769325577   122.41948328     2.26793251
 C      5   4   3     2.632533592000   117.49545576   358.96753565
 C      3   2   1     2.747452541018   134.83733522   182.09354156
 C      7   3   2     2.691081480692   106.15573784   174.78252624
 N      8   7   3     2.615383016731   109.19028549     2.27890218
 C      8   7   3     2.652283477850   122.79441508   183.57368220
 C     10   8   7     2.634112255142   117.22695849     0.91375441
 C     11  10   8     2.648871196616   121.15826114   358.45229260
 C     12  11  10     2.659001538569   122.18178515   359.73718088
 H     12  11  10     2.054591068590   119.04190331   181.68933720
 H      9   8   7     1.913487437973   125.31818878   181.29309362
 H     11  10   8     2.053375049122   119.60190418   179.15253084
 H      2   1   3     2.052268303686   119.79244966   181.08837667
 H      5   4   3     2.053718477038   121.20053586   179.59721589
 H      6   5   4     2.053684759987   119.55860673   180.10916958
 H      1   2   3     2.053196534772   119.43575075   180.00556730
 N     17   2   1    10.821441541783   166.41703951   225.31973524
 C     21  17   2     2.626079947062    63.47773163   282.47012677
 C     22  21  17     2.611722172927   115.21185204   205.40076381
 S     23  22  21     3.315726175461   110.21498977     0.00000000
 C     21  17   2     2.486354661190   156.79637889   194.77219235
 C     22  21  17     2.753365531258   119.64130459    25.34703622
 S     26  22  21     3.367898236148   122.21605070   180.38035437
 C     13  12  11     2.773840745196   119.48163781   184.95755551
 C     28  13  12     2.613629026359   128.42122152   136.80302509
 N     26  22  21     2.500500467716   124.63572386     0.44779035
 H     23  22  21     2.045213719728   127.52304421   179.99861068
 H     29  28  13     2.055780088261   124.04559977     1.54700823
 C     25  21  17     8.148391782585   124.00803872   256.83872999
 C     33  25  21     2.655607764114    60.81496032   179.96860286
 C     34  33  25     2.655396946136   119.59112293     0.00000000
 C     35  34  33     2.697213794778   121.75473595     0.00000000
 C     36  35  34     2.698612577395   116.76709377     0.00000000
 C     33  25  21     2.655090759350    59.73609222   359.96888263
 O     37  36  35     2.538531604803   119.30761689   180.00234809
 O     35  34  33     2.544965218021   117.11265084   179.99962124
 O     33  25  21     2.553214473484   178.80120510     0.00000000
 H     41  33  38     1.825570884102   110.47854748   179.99920962
 H     40  35  34     1.851676175747   110.91697762   179.99655066
 H     39  37  36     1.824697078560   110.81334220   180.03520508
 H     38  33  25     2.050185860315   120.06158941   180.00100538
 H     10   8   7     2.052735535068   121.32598498   179.93367883
 H     34  33  25     2.049617483193   121.08759194   180.00012336

---------------------
BASIS SET INFORMATION
---------------------
There are 5 groups of distinct atoms

 Group   1 Type C   : 11s6p2d1f contracted to 5s3p2d1f pattern {62111/411/11/1}
 Group   2 Type N   : 11s6p2d1f contracted to 5s3p2d1f pattern {62111/411/11/1}
 Group   3 Type H   : 5s1p contracted to 3s1p pattern {311/1}
 Group   4 Type S   : 14s9p3d1f contracted to 5s5p2d1f pattern {73211/51111/21/1}
 Group   5 Type O   : 11s6p2d1f contracted to 5s3p2d1f pattern {62111/411/11/1}

Atom   0C    basis set group =>   1
Atom   1C    basis set group =>   1
Atom   2C    basis set group =>   1
Atom   3C    basis set group =>   1
Atom   4C    basis set group =>   1
Atom   5C    basis set group =>   1
Atom   6C    basis set group =>   1
Atom   7C    basis set group =>   1
Atom   8N    basis set group =>   2
Atom   9C    basis set group =>   1
Atom  10C    basis set group =>   1
Atom  11C    basis set group =>   1
Atom  12C    basis set group =>   1
Atom  13H    basis set group =>   3
Atom  14H    basis set group =>   3
Atom  15H    basis set group =>   3
Atom  16H    basis set group =>   3
Atom  17H    basis set group =>   3
Atom  18H    basis set group =>   3
Atom  19H    basis set group =>   3
Atom  20N    basis set group =>   2
Atom  21C    basis set group =>   1
Atom  22C    basis set group =>   1
Atom  23S    basis set group =>   4
Atom  24C    basis set group =>   1
Atom  25C    basis set group =>   1
Atom  26S    basis set group =>   4
Atom  27C    basis set group =>   1
Atom  28C    basis set group =>   1
Atom  29N    basis set group =>   2
Atom  30H    basis set group =>   3
Atom  31H    basis set group =>   3
Atom  32C    basis set group =>   1
Atom  33C    basis set group =>   1
Atom  34C    basis set group =>   1
Atom  35C    basis set group =>   1
Atom  36C    basis set group =>   1
Atom  37C    basis set group =>   1
Atom  38O    basis set group =>   5
Atom  39O    basis set group =>   5
Atom  40O    basis set group =>   5
Atom  41H    basis set group =>   3
Atom  42H    basis set group =>   3
Atom  43H    basis set group =>   3
Atom  44H    basis set group =>   3
Atom  45H    basis set group =>   3
Atom  46H    basis set group =>   3
-------------------------------
AUXILIARY BASIS SET INFORMATION
-------------------------------
There are 5 groups of distinct atoms

 Group   1 Type C   : 12s5p4d2f1g contracted to 6s4p3d1f1g pattern {711111/2111/211/2/1}
 Group   2 Type N   : 12s5p4d2f1g contracted to 6s4p3d1f1g pattern {711111/2111/211/2/1}
 Group   3 Type H   : 5s2p1d contracted to 3s1p1d pattern {311/2/1}
 Group   4 Type S   : 14s5p5d2f1g contracted to 8s4p3d1f1g pattern {71111111/2111/311/2/1}
 Group   5 Type O   : 12s5p4d2f1g contracted to 6s4p3d1f1g pattern {711111/2111/211/2/1}

Atom   0C    basis set group =>   1
Atom   1C    basis set group =>   1
Atom   2C    basis set group =>   1
Atom   3C    basis set group =>   1
Atom   4C    basis set group =>   1
Atom   5C    basis set group =>   1
Atom   6C    basis set group =>   1
Atom   7C    basis set group =>   1
Atom   8N    basis set group =>   2
Atom   9C    basis set group =>   1
Atom  10C    basis set group =>   1
Atom  11C    basis set group =>   1
Atom  12C    basis set group =>   1
Atom  13H    basis set group =>   3
Atom  14H    basis set group =>   3
Atom  15H    basis set group =>   3
Atom  16H    basis set group =>   3
Atom  17H    basis set group =>   3
Atom  18H    basis set group =>   3
Atom  19H    basis set group =>   3
Atom  20N    basis set group =>   2
Atom  21C    basis set group =>   1
Atom  22C    basis set group =>   1
Atom  23S    basis set group =>   4
Atom  24C    basis set group =>   1
Atom  25C    basis set group =>   1
Atom  26S    basis set group =>   4
Atom  27C    basis set group =>   1
Atom  28C    basis set group =>   1
Atom  29N    basis set group =>   2
Atom  30H    basis set group =>   3
Atom  31H    basis set group =>   3
Atom  32C    basis set group =>   1
Atom  33C    basis set group =>   1
Atom  34C    basis set group =>   1
Atom  35C    basis set group =>   1
Atom  36C    basis set group =>   1
Atom  37C    basis set group =>   1
Atom  38O    basis set group =>   5
Atom  39O    basis set group =>   5
Atom  40O    basis set group =>   5
Atom  41H    basis set group =>   3
Atom  42H    basis set group =>   3
Atom  43H    basis set group =>   3
Atom  44H    basis set group =>   3
Atom  45H    basis set group =>   3
Atom  46H    basis set group =>   3
-------------------------
ECP PARAMETER INFORMATION
-------------------------



--------------------------------------------------------------------------
[[5324,1],1]: A high-performance Open MPI point-to-point messaging module
was unable to find any relevant network interfaces:

Module: OpenFabrics (openib)
  Host: cx1-136-5-2

Another transport will be used instead, although this may result in
lower performance.
--------------------------------------------------------------------------


           ************************************************************
           *        Program running with 24 parallel MPI-processes    *
           *              working on a common directory               *
           ************************************************************
------------------------------------------------------------------------------
                           ORCA GTO INTEGRAL CALCULATION
                           -- RI-GTO INTEGRALS CHOSEN --
------------------------------------------------------------------------------

                         BASIS SET STATISTICS AND STARTUP INFO

Gaussian basis set:
 # of primitive gaussian shells          ...  744
 # of primitive gaussian functions       ... 1626
 # of contracted shells                  ...  416
 # of contracted basis functions         ... 1094
 Highest angular momentum                ...    3
 Maximum contraction depth               ...    7
Auxiliary gaussian basis set:
 # of primitive gaussian shells          ...  894
 # of primitive gaussian functions       ... 2494
 # of contracted shells                  ...  559
 # of contracted aux-basis functions     ... 1737
 Highest angular momentum                ...    4
 Maximum contraction depth               ...    7
Ratio of auxiliary to basis functions    ...  1.59
Integral package used                  ... LIBINT
 One Electron integrals                  
   ECP integrals                         ... done
 Ordering auxiliary basis shells         ... done
 Integral threshhold             Thresh  ...  2.500e-11
 Primitive cut-off               TCut    ...  2.500e-12
 Pre-screening matrix                    ... done
 Shell pair data                         ... 
 Ordering of the shell pairs             ... done (   0.016 sec) 44801 of 86736 pairs
 Determination of significant pairs      ... done (   0.000 sec)
 Creation of shell pair data             ... done (   0.011 sec)
 Storage of shell pair data              ... done (   0.113 sec)
 Shell pair data done in (   0.140 sec)
 Computing two index integrals           ... done
 Cholesky decomposition of the V-matrix  ... done


Timings:
 Total evaluation time                   ...   5.395 sec (  0.090 min)
 One electron matrix time                ...   1.566 sec (  0.026 min) = 29.0%
 Schwartz matrix evaluation time         ...   2.695 sec (  0.045 min) = 50.0%
 Two index repulsion integral time       ...   0.396 sec (  0.007 min) =  7.3%
 Cholesky decomposition of V             ...   0.551 sec (  0.009 min) = 10.2%
 Three index repulsion integral time     ...   0.000 sec (  0.000 min) =  0.0%

--------------------------------------------------------------------------
[[5916,1],2]: A high-performance Open MPI point-to-point messaging module
was unable to find any relevant network interfaces:

Module: OpenFabrics (openib)
  Host: cx1-136-5-2

Another transport will be used instead, although this may result in
lower performance.
--------------------------------------------------------------------------


           ************************************************************
           *        Program running with 24 parallel MPI-processes    *
           *              working on a common directory               *
           ************************************************************
-------------------------------------------------------------------------------
                                 ORCA SCF
-------------------------------------------------------------------------------

------------
SCF SETTINGS
------------
Hamiltonian:
 Density Functional     Method          .... DFT(GTOs)
 Exchange Functional    Exchange        .... WB97X-D3
 Correlation Functional Correlation     .... WB97X-D3
 Gradients option       PostSCFGGA      .... off
 Hybrid DFT is turned on
   Fraction HF Exchange ScalHFX         ....  0.195728
   Scaling of DF-GGA-X  ScalDFX         ....  0.000000
   Scaling of DF-GGA-C  ScalDFC         ....  1.000000
   Scaling of DF-LDA-C  ScalLDAC        ....  1.000000
   Perturbative correction              ....  0.000000
 Long-range corrected/Screened/Range-Separated Hybrid DFT is turned on
   Amount of maximum screened exact exchange              ....  0.804272
   Range separation parameter mu (erf(mu*r12)/r12)        ....  0.250000
 RI-approximation to the Coulomb term is turned on
   Number of auxiliary basis functions  .... 1737
   RIJ-COSX (HFX calculated with COS-X)).... on


General Settings:
 Integral files         IntName         .... total
 Hartree-Fock type      HFTyp           .... RHF
 Total Charge           Charge          ....    0
 Multiplicity           Mult            ....    1
 Number of Electrons    NEL             ....  236
 Basis Dimension        Dim             .... 1094
 Nuclear Repulsion      ENuc            ....   3136.7648224223 Eh

Convergence Acceleration:
 DIIS                   CNVDIIS         .... on
   Start iteration      DIISMaxIt       ....    12
   Startup error        DIISStart       ....  0.200000
   # of expansion vecs  DIISMaxEq       ....     5
   Bias factor          DIISBfac        ....   1.050
   Max. coefficient     DIISMaxC        ....  10.000
 Newton-Raphson         CNVNR           .... off
 SOSCF                  CNVSOSCF        .... on
   Start iteration      SOSCFMaxIt      ....   150
   Startup grad/error   SOSCFStart      ....  0.003300
 Level Shifting         CNVShift        .... on
   Level shift para.    LevelShift      ....    0.2500
   Turn off err/grad.   ShiftErr        ....    0.0010
 Zerner damping         CNVZerner       .... off
 Static damping         CNVDamp         .... on
   Fraction old density DampFac         ....    0.7000
   Max. Damping (<1)    DampMax         ....    0.9800
   Min. Damping (>=0)   DampMin         ....    0.0000
   Turn off err/grad.   DampErr         ....    0.1000
 Fernandez-Rico         CNVRico         .... off

SCF Procedure:
 Maximum # iterations   MaxIter         ....   125
 SCF integral mode      SCFMode         .... Direct
   Integral package                     .... LIBINT
 Reset frequeny         DirectResetFreq ....    20
 Integral Threshold     Thresh          ....  2.500e-11 Eh
 Primitive CutOff       TCut            ....  2.500e-12 Eh

Convergence Tolerance:
 Convergence Check Mode ConvCheckMode   .... Total+1el-Energy
 Convergence forced     ConvForced      .... 1
 Energy Change          TolE            ....  1.000e-08 Eh
 1-El. energy change                    ....  1.000e-05 Eh
 Orbital Gradient       TolG            ....  1.000e-05
 Orbital Rotation angle TolX            ....  1.000e-05
 DIIS Error             TolErr          ....  5.000e-07


Diagonalization of the overlap matrix:
Smallest eigenvalue                        ... 6.208e-06
Time for diagonalization                   ...    0.415 sec
Threshold for overlap eigenvalues          ... 1.000e-08
Number of eigenvalues below threshold      ... 0
Time for construction of square roots      ...    0.426 sec
Total time needed                          ...    0.845 sec

-------------------
DFT GRID GENERATION
-------------------

General Integration Accuracy     IntAcc      ...  5.010
Radial Grid Type                 RadialGrid  ... Gauss-Chebyshev
Angular Grid (max. acc.)         AngularGrid ... Lebedev-434
Angular grid pruning method      GridPruning ... 3 (G Style)
Weight generation scheme         WeightScheme... Becke
Basis function cutoff            BFCut       ...    1.0000e-11
Integration weight cutoff        WCut        ...    1.0000e-14
Grids for H and He will be reduced by one unit

# of grid points (after initial pruning)     ... 444908 (   0.0 sec)
# of grid points (after weights+screening)   ... 390620 (   1.2 sec)
nearest neighbour list constructed           ...    0.0 sec
Grid point re-assignment to atoms done       ...    0.2 sec
Grid point division into batches done        ...    4.7 sec
Reduced shell lists constructed in    5.6 sec

Total number of grid points                  ...   390620
Total number of batches                      ...     6130
Average number of points per batch           ...       63
Average number of grid points per atom       ...     8311
Average number of shells per batch           ...   140.33 (33.73%)
Average number of basis functions per batch  ...   363.09 (33.19%)
Average number of large shells per batch     ...    95.33 (67.93%)
Average number of large basis fcns per batch ...   246.34 (67.84%)
Maximum spatial batch extension              ...  13.50, 14.37, 13.25 au
Average spatial batch extension              ...   0.05,  0.05,  0.05 au

Time for grid setup =    7.582 sec

------------------------------
INITIAL GUESS: MODEL POTENTIAL
------------------------------
Loading Hartree-Fock densities                     ... done
Calculating cut-offs                               ... done
Setting up the integral package                    ... done
Initializing the effective Hamiltonian             ... done
Starting the Coulomb interaction                   ... done (   0.4 sec)
Reading the grid                                   ... done
Mapping shells                                     ... done
Starting the XC term evaluation                    ... done (   2.2 sec)
  promolecular density results
     # of electrons  =    235.992779158
     EX              =   -221.153332189
     EC              =     -8.177803267
     EX+EC           =   -229.331135455
Transforming the Hamiltonian                       ... done (   0.2 sec)
Diagonalizing the Hamiltonian                      ... done (   0.4 sec)
Back transforming the eigenvectors                 ... done (   0.1 sec)
Now organizing SCF variables                       ... done
                      ------------------
                      INITIAL GUESS DONE (  11.2 sec)
                      ------------------
--------------------
COSX GRID GENERATION
--------------------

General Integration Accuracy     IntAcc      ...  3.340
Radial Grid Type                 RadialGrid  ... Gauss-Chebyshev
Angular Grid (max. acc.)         AngularGrid ... Lebedev-50
Angular grid pruning method      GridPruning ... 3 (G Style)
Weight generation scheme         WeightScheme... Becke
Basis function cutoff            BFCut       ...    1.0000e-11
Integration weight cutoff        WCut        ...    1.0000e-14
Grids for H and He will be reduced by one unit

# of grid points (after initial pruning)     ...  23570 (   0.0 sec)
# of grid points (after weights+screening)   ...  21515 (   0.1 sec)
nearest neighbour list constructed           ...    0.0 sec
Grid point re-assignment to atoms done       ...    0.0 sec
Grid point division into batches done        ...    0.0 sec
Reduced shell lists constructed in    0.1 sec

Total number of grid points                  ...    21515
Total number of batches                      ...      361
Average number of points per batch           ...       59
Average number of grid points per atom       ...      458
Average number of shells per batch           ...   154.76 (37.20%)
Average number of basis functions per batch  ...   405.00 (37.02%)
Average number of large shells per batch     ...   106.82 (69.02%)
Average number of large basis fcns per batch ...   281.53 (69.51%)
Maximum spatial batch extension              ...   5.88, 14.20, 13.05 au
Average spatial batch extension              ...   0.13,  0.20,  0.20 au

Overlap Fitting                  UseSFitting ... on
Constructing numerical overlap ... done (      0.1 sec)
Inverting numerical overlap    ... done (      0.2 sec)
Obtaining analytic overlap     ... done (      0.0 sec)
Final contraction and storage  ... done (      0.5 sec)


General Integration Accuracy     IntAcc      ...  3.670
Radial Grid Type                 RadialGrid  ... Gauss-Chebyshev
Angular Grid (max. acc.)         AngularGrid ... Lebedev-50
Angular grid pruning method      GridPruning ... 3 (G Style)
Weight generation scheme         WeightScheme... Becke
Basis function cutoff            BFCut       ...    1.0000e-11
Integration weight cutoff        WCut        ...    1.0000e-14
Grids for H and He will be reduced by one unit

# of grid points (after initial pruning)     ...  29532 (   0.0 sec)
# of grid points (after weights+screening)   ...  26882 (   0.1 sec)
nearest neighbour list constructed           ...    0.0 sec
Grid point re-assignment to atoms done       ...    0.0 sec
Grid point division into batches done        ...    0.0 sec
Reduced shell lists constructed in    0.1 sec

Total number of grid points                  ...    26882
Total number of batches                      ...      442
Average number of points per batch           ...       60
Average number of grid points per atom       ...      572
Average number of shells per batch           ...   154.40 (37.12%)
Average number of basis functions per batch  ...   403.30 (36.86%)
Average number of large shells per batch     ...   105.50 (68.33%)
Average number of large basis fcns per batch ...   276.60 (68.58%)
Maximum spatial batch extension              ...   5.87, 11.74, 14.13 au
Average spatial batch extension              ...   0.11,  0.17,  0.18 au

Overlap Fitting                  UseSFitting ... on
Constructing numerical overlap ... done (      0.1 sec)
Inverting numerical overlap    ... done (      0.1 sec)
Obtaining analytic overlap     ... done (      0.0 sec)
Final contraction and storage  ... done (      0.5 sec)


General Integration Accuracy     IntAcc      ...  4.010
Radial Grid Type                 RadialGrid  ... Gauss-Chebyshev
Angular Grid (max. acc.)         AngularGrid ... Lebedev-110
Angular grid pruning method      GridPruning ... 3 (G Style)
Weight generation scheme         WeightScheme... Becke
Basis function cutoff            BFCut       ...    1.0000e-11
Integration weight cutoff        WCut        ...    1.0000e-14
Grids for H and He will be reduced by one unit

# of grid points (after initial pruning)     ...  57186 (   0.0 sec)
# of grid points (after weights+screening)   ...  51621 (   0.1 sec)
nearest neighbour list constructed           ...    0.0 sec
Grid point re-assignment to atoms done       ...    0.0 sec
Grid point division into batches done        ...    0.1 sec
Reduced shell lists constructed in    0.2 sec

Total number of grid points                  ...    51621
Total number of batches                      ...      830
Average number of points per batch           ...       62
Average number of grid points per atom       ...     1098
Average number of shells per batch           ...   151.47 (36.41%)
Average number of basis functions per batch  ...   396.69 (36.26%)
Average number of large shells per batch     ...   104.56 (69.03%)
Average number of large basis fcns per batch ...   274.50 (69.20%)
Maximum spatial batch extension              ...   6.75, 13.23, 13.60 au
Average spatial batch extension              ...   0.10,  0.13,  0.14 au

Overlap Fitting                  UseSFitting ... on
Constructing numerical overlap ... done (      0.2 sec)
Inverting numerical overlap    ... done (      0.2 sec)
Obtaining analytic overlap     ... done (      0.0 sec)
Final contraction and storage  ... done (      0.5 sec)

Time for X-Grid setup             =    3.603 sec
--------------
SCF ITERATIONS
--------------
ITER       Energy         Delta-E        Max-DP      RMS-DP      [F,P]     Damp
               ***  Starting incremental Fock matrix formation  ***
  0  -2109.2426681806   0.000000000000 0.09149306  0.00068771  0.2184837 0.7000
  1  -2109.5607411331  -0.318072952537 0.08488804  0.00054311  0.1127454 0.7000
                               ***Turning on DIIS***
  2  -2109.7087240295  -0.147982896425 0.13659612  0.00101636  0.0550161 0.0000
  3  -2109.9495983472  -0.240874317633 0.06887331  0.00043733  0.0466924 0.0000
  4  -2109.9922355573  -0.042637210159 0.01606169  0.00012888  0.0116874 0.0000
  5  -2109.9942666774  -0.002031120067 0.00707629  0.00006061  0.0060864 0.0000
                      *** Initiating the SOSCF procedure ***
                           *** Shutting down DIIS ***
                      *** Re-Reading the Fockian *** 
                      *** Removing any level shift *** 
ITER      Energy       Delta-E        Grad      Rot      Max-DP    RMS-DP
  6  -2109.99468106  -0.0004143845  0.001778  0.001778  0.003067  0.000034
               *** Restarting incremental Fock matrix formation ***
  7  -2109.99483085  -0.0001497834  0.001259  0.003483  0.005894  0.000067
  8  -2109.99489076  -0.0000599117  0.000386  0.003352  0.003811  0.000046
  9  -2109.99490640  -0.0000156467  0.000208  0.000487  0.003136  0.000035
 10  -2109.99491259  -0.0000061907  0.000063  0.000168  0.000506  0.000006
 11  -2109.99491275  -0.0000001577  0.000052  0.000119  0.000305  0.000003
 12  -2109.99491301  -0.0000002617  0.000012  0.000032  0.000159  0.000001
 13  -2109.99491301   0.0000000017  0.000006  0.000013  0.000128  0.000001
 14  -2109.99491310  -0.0000000865  0.000003  0.000007  0.000196  0.000001
                  ***Gradient check signals convergence***
              ***Rediagonalizing the Fockian in SOSCF/NRSCF***

               *****************************************************
               *                     SUCCESS                       *
               *           SCF CONVERGED AFTER  15 CYCLES          *
               *****************************************************

Old exchange energy                            =    -69.242674309 Eh
New exchange energy                            =    -69.243160734 Eh
Exchange energy change after final integration =     -0.000486425 Eh
Total energy after final integration           =  -2109.995399530 Eh
Final COS-X integration done in                =    44.746 sec

----------------
TOTAL SCF ENERGY
----------------

Total Energy       :        -2109.99539953 Eh          -57415.89379 eV

Components:
Nuclear Repulsion  :         3136.76482242 Eh           85355.71022 eV
Electronic Energy  :        -5246.76022195 Eh         -142771.60401 eV
One Electron Energy:        -9125.53576292 Eh         -248318.45238 eV
Two Electron Energy:         3878.77554097 Eh          105546.84837 eV

Virial components:
Potential Energy   :        -4211.75266772 Eh         -114607.61663 eV
Kinetic Energy     :         2101.75726819 Eh           57191.72284 eV
Virial Ratio       :            2.00391964


DFT components:
N(Alpha)           :      118.000014341458 electrons
N(Beta)            :      118.000014341458 electrons
N(Total)           :      236.000028682917 electrons
E(XC)              :     -164.300291572200 Eh       

---------------
SCF CONVERGENCE
---------------

  Last Energy change         ...   -6.3064e-09  Tolerance :   1.0000e-08
  Last MAX-Density change    ...    1.3205e-14  Tolerance :   1.0000e-07
  Last RMS-Density change    ...    1.0852e-16  Tolerance :   5.0000e-09
  Last Orbital Gradient      ...    1.6588e-06  Tolerance :   1.0000e-05
  Last Orbital Rotation      ...    2.9612e-06  Tolerance :   1.0000e-05

             **** THE GBW FILE WAS UPDATED (total.gbw) ****
             **** DENSITY FILE WAS UPDATED (total.scfp.tmp) ****
             **** ENERGY FILE WAS UPDATED (total.en.tmp) ****
----------------
ORBITAL ENERGIES
----------------

  NO   OCC          E(Eh)            E(eV) 
   0   2.0000     -88.998473     -2421.7716 
   1   2.0000     -88.988211     -2421.4923 
   2   2.0000     -19.277797      -524.5755 
   3   2.0000     -19.274998      -524.4994 
   4   2.0000     -19.266748      -524.2749 
   5   2.0000     -14.469470      -393.7343 
   6   2.0000     -14.426768      -392.5723 
   7   2.0000     -14.424529      -392.5114 
   8   2.0000     -10.372466      -282.2492 
   9   2.0000     -10.369969      -282.1812 
  10   2.0000     -10.368104      -282.1305 
  11   2.0000     -10.365296      -282.0540 
  12   2.0000     -10.359225      -281.8888 
  13   2.0000     -10.339989      -281.3654 
  14   2.0000     -10.330596      -281.1098 
  15   2.0000     -10.329379      -281.0767 
  16   2.0000     -10.327790      -281.0335 
  17   2.0000     -10.326895      -281.0091 
  18   2.0000     -10.312890      -280.6280 
  19   2.0000     -10.312105      -280.6066 
  20   2.0000     -10.302773      -280.3527 
  21   2.0000     -10.297013      -280.1960 
  22   2.0000     -10.291446      -280.0445 
  23   2.0000     -10.290995      -280.0322 
  24   2.0000     -10.290389      -280.0157 
  25   2.0000     -10.287271      -279.9309 
  26   2.0000     -10.285429      -279.8807 
  27   2.0000     -10.284381      -279.8522 
  28   2.0000     -10.283920      -279.8397 
  29   2.0000     -10.279221      -279.7118 
  30   2.0000     -10.278802      -279.7004 
  31   2.0000     -10.275720      -279.6166 
  32   2.0000      -8.096150      -220.3074 
  33   2.0000      -8.084812      -219.9989 
  34   2.0000      -6.049171      -164.6063 
  35   2.0000      -6.045636      -164.5101 
  36   2.0000      -6.042967      -164.4375 
  37   2.0000      -6.037857      -164.2984 
  38   2.0000      -6.034042      -164.1946 
  39   2.0000      -6.031987      -164.1387 
  40   2.0000      -1.198701       -32.6183 
  41   2.0000      -1.196142       -32.5487 
  42   2.0000      -1.190970       -32.4079 
  43   2.0000      -1.106092       -30.0983 
  44   2.0000      -1.087611       -29.5954 
  45   2.0000      -1.067956       -29.0605 
  46   2.0000      -0.979072       -26.6419 
  47   2.0000      -0.971509       -26.4361 
  48   2.0000      -0.966374       -26.2964 
  49   2.0000      -0.923402       -25.1271 
  50   2.0000      -0.919620       -25.0241 
  51   2.0000      -0.913204       -24.8496 
  52   2.0000      -0.900589       -24.5063 
  53   2.0000      -0.878136       -23.8953 
  54   2.0000      -0.865964       -23.5641 
  55   2.0000      -0.863774       -23.5045 
  56   2.0000      -0.845762       -23.0143 
  57   2.0000      -0.840327       -22.8665 
  58   2.0000      -0.823322       -22.4037 
  59   2.0000      -0.769816       -20.9477 
  60   2.0000      -0.758395       -20.6370 
  61   2.0000      -0.750514       -20.4225 
  62   2.0000      -0.737772       -20.0758 
  63   2.0000      -0.720659       -19.6101 
  64   2.0000      -0.717886       -19.5347 
  65   2.0000      -0.709301       -19.3011 
  66   2.0000      -0.697026       -18.9670 
  67   2.0000      -0.695006       -18.9121 
  68   2.0000      -0.669548       -18.2193 
  69   2.0000      -0.647014       -17.6061 
  70   2.0000      -0.639954       -17.4140 
  71   2.0000      -0.621548       -16.9132 
  72   2.0000      -0.616798       -16.7839 
  73   2.0000      -0.613731       -16.7005 
  74   2.0000      -0.612092       -16.6559 
  75   2.0000      -0.611246       -16.6328 
  76   2.0000      -0.604910       -16.4604 
  77   2.0000      -0.578147       -15.7322 
  78   2.0000      -0.568874       -15.4799 
  79   2.0000      -0.559011       -15.2115 
  80   2.0000      -0.557863       -15.1802 
  81   2.0000      -0.553830       -15.0705 
  82   2.0000      -0.546544       -14.8722 
  83   2.0000      -0.542392       -14.7592 
  84   2.0000      -0.537155       -14.6167 
  85   2.0000      -0.532504       -14.4902 
  86   2.0000      -0.529766       -14.4157 
  87   2.0000      -0.526474       -14.3261 
  88   2.0000      -0.521927       -14.2024 
  89   2.0000      -0.513145       -13.9634 
  90   2.0000      -0.510067       -13.8796 
  91   2.0000      -0.507372       -13.8063 
  92   2.0000      -0.506918       -13.7939 
  93   2.0000      -0.496659       -13.5148 
  94   2.0000      -0.489227       -13.3126 
  95   2.0000      -0.473938       -12.8965 
  96   2.0000      -0.470254       -12.7963 
  97   2.0000      -0.469614       -12.7789 
  98   2.0000      -0.465798       -12.6750 
  99   2.0000      -0.464650       -12.6438 
 100   2.0000      -0.453202       -12.3323 
 101   2.0000      -0.448657       -12.2086 
 102   2.0000      -0.443920       -12.0797 
 103   2.0000      -0.439412       -11.9570 
 104   2.0000      -0.433769       -11.8035 
 105   2.0000      -0.408017       -11.1027 
 106   2.0000      -0.394889       -10.7455 
 107   2.0000      -0.382619       -10.4116 
 108   2.0000      -0.378791       -10.3074 
 109   2.0000      -0.371874       -10.1192 
 110   2.0000      -0.369037       -10.0420 
 111   2.0000      -0.356281        -9.6949 
 112   2.0000      -0.350054        -9.5254 
 113   2.0000      -0.319982        -8.7072 
 114   2.0000      -0.311117        -8.4659 
 115   2.0000      -0.299842        -8.1591 
 116   2.0000      -0.293607        -7.9895 
 117   2.0000      -0.278711        -7.5841 
 118   0.0000      -0.007295        -0.1985 
 119   0.0000       0.018761         0.5105 
 120   0.0000       0.035189         0.9575 
 121   0.0000       0.055041         1.4977 
 122   0.0000       0.060271         1.6401 
 123   0.0000       0.074852         2.0368 
 124   0.0000       0.080563         2.1922 
 125   0.0000       0.087637         2.3847 
 126   0.0000       0.100547         2.7360 
 127   0.0000       0.108911         2.9636 
 128   0.0000       0.109155         2.9703 
 129   0.0000       0.110567         3.0087 
 130   0.0000       0.116134         3.1602 
 131   0.0000       0.119349         3.2476 
 132   0.0000       0.131540         3.5794 
 133   0.0000       0.137622         3.7449 
 134   0.0000       0.144779         3.9396 
 135   0.0000       0.146734         3.9928 
 136   0.0000       0.155099         4.2205 
 137   0.0000       0.158886         4.3235 
 138   0.0000       0.161514         4.3950 
 139   0.0000       0.164461         4.4752 
 140   0.0000       0.169075         4.6008 
 141   0.0000       0.171861         4.6766 
 142   0.0000       0.179868         4.8945 
 143   0.0000       0.182677         4.9709 
 144   0.0000       0.185832         5.0567 
 145   0.0000       0.188058         5.1173 
 146   0.0000       0.193415         5.2631 
 147   0.0000       0.205668         5.5965 
 148   0.0000       0.210082         5.7166 
 149   0.0000       0.216370         5.8877 
 150   0.0000       0.217915         5.9298 
 151   0.0000       0.223649         6.0858 
 152   0.0000       0.231414         6.2971 
 153   0.0000       0.233358         6.3500 
 154   0.0000       0.243015         6.6128 
 155   0.0000       0.247601         6.7376 
 156   0.0000       0.249630         6.7928 
 157   0.0000       0.260184         7.0800 
 158   0.0000       0.262363         7.1393 
 159   0.0000       0.264066         7.1856 
 160   0.0000       0.269354         7.3295 
 161   0.0000       0.272704         7.4207 
 162   0.0000       0.278275         7.5723 
 163   0.0000       0.279760         7.6127 
 164   0.0000       0.282868         7.6972 
 165   0.0000       0.285977         7.7818 
 166   0.0000       0.291096         7.9211 
 167   0.0000       0.292844         7.9687 
 168   0.0000       0.293029         7.9737 
 169   0.0000       0.295393         8.0381 
 170   0.0000       0.297490         8.0951 
 171   0.0000       0.303143         8.2489 
 172   0.0000       0.305521         8.3136 
 173   0.0000       0.311820         8.4850 
 174   0.0000       0.316572         8.6144 
 175   0.0000       0.318637         8.6706 
 176   0.0000       0.322996         8.7892 
 177   0.0000       0.328006         8.9255 
 178   0.0000       0.329412         8.9638 
 179   0.0000       0.330577         8.9955 
 180   0.0000       0.335223         9.1219 
 181   0.0000       0.336832         9.1657 
 182   0.0000       0.339055         9.2261 
 183   0.0000       0.343760         9.3542 
 184   0.0000       0.347129         9.4459 
 185   0.0000       0.352447         9.5906 
 186   0.0000       0.355452         9.6723 
 187   0.0000       0.356143         9.6912 
 188   0.0000       0.358487         9.7549 
 189   0.0000       0.364702         9.9241 
 190   0.0000       0.370931        10.0935 
 191   0.0000       0.371393        10.1061 
 192   0.0000       0.374766        10.1979 
 193   0.0000       0.378444        10.2980 
 194   0.0000       0.380202        10.3458 
 195   0.0000       0.380731        10.3602 
 196   0.0000       0.387209        10.5365 
 197   0.0000       0.390333        10.6215 
 198   0.0000       0.396449        10.7879 
 199   0.0000       0.397312        10.8114 
 200   0.0000       0.401356        10.9214 
 201   0.0000       0.404880        11.0174 
 202   0.0000       0.406989        11.0747 
 203   0.0000       0.411033        11.1848 
 204   0.0000       0.412257        11.2181 
 205   0.0000       0.416542        11.3347 
 206   0.0000       0.419440        11.4135 
 207   0.0000       0.426033        11.5930 
 208   0.0000       0.428153        11.6506 
 209   0.0000       0.431370        11.7382 
 210   0.0000       0.434522        11.8239 
 211   0.0000       0.438193        11.9238 
 212   0.0000       0.438598        11.9349 
 213   0.0000       0.444469        12.0946 
 214   0.0000       0.446892        12.1606 
 215   0.0000       0.447198        12.1689 
 216   0.0000       0.449492        12.2313 
 217   0.0000       0.453005        12.3269 
 218   0.0000       0.457178        12.4404 
 219   0.0000       0.459507        12.5038 
 220   0.0000       0.462465        12.5843 
 221   0.0000       0.467958        12.7338 
 222   0.0000       0.470261        12.7964 
 223   0.0000       0.470836        12.8121 
 224   0.0000       0.473963        12.8972 
 225   0.0000       0.478528        13.0214 
 226   0.0000       0.480033        13.0624 
 227   0.0000       0.482614        13.1326 
 228   0.0000       0.485143        13.2014 
 229   0.0000       0.489610        13.3230 
 230   0.0000       0.497391        13.5347 
 231   0.0000       0.499663        13.5965 
 232   0.0000       0.500392        13.6164 
 233   0.0000       0.502608        13.6766 
 234   0.0000       0.505533        13.7563 
 235   0.0000       0.509102        13.8534 
 236   0.0000       0.513352        13.9690 
 237   0.0000       0.516627        14.0581 
 238   0.0000       0.520074        14.1519 
 239   0.0000       0.522760        14.2250 
 240   0.0000       0.526299        14.3213 
 241   0.0000       0.533302        14.5119 
 242   0.0000       0.534628        14.5480 
 243   0.0000       0.536075        14.5874 
 244   0.0000       0.537795        14.6342 
 245   0.0000       0.539889        14.6911 
 246   0.0000       0.540913        14.7190 
 247   0.0000       0.547005        14.8848 
 248   0.0000       0.550198        14.9716 
 249   0.0000       0.552508        15.0345 
 250   0.0000       0.557388        15.1673 
 251   0.0000       0.561733        15.2855 
 252   0.0000       0.565709        15.3937 
 253   0.0000       0.567359        15.4386 
 254   0.0000       0.570373        15.5206 
 255   0.0000       0.576819        15.6961 
 256   0.0000       0.578543        15.7430 
 257   0.0000       0.584499        15.9050 
 258   0.0000       0.587402        15.9840 
 259   0.0000       0.592521        16.1233 
 260   0.0000       0.594035        16.1645 
 261   0.0000       0.595255        16.1977 
 262   0.0000       0.599213        16.3054 
 263   0.0000       0.610239        16.6054 
 264   0.0000       0.616818        16.7845 
 265   0.0000       0.620187        16.8761 
 266   0.0000       0.630659        17.1611 
 267   0.0000       0.635539        17.2939 
 268   0.0000       0.639549        17.4030 
 269   0.0000       0.646607        17.5951 
 270   0.0000       0.649334        17.6693 
 271   0.0000       0.652937        17.7673 
 272   0.0000       0.656669        17.8689 
 273   0.0000       0.664406        18.0794 
 274   0.0000       0.666398        18.1336 
 275   0.0000       0.669764        18.2252 
 276   0.0000       0.672826        18.3085 
 277   0.0000       0.676931        18.4202 
 278   0.0000       0.682257        18.5652 
 279   0.0000       0.684288        18.6204 
 280   0.0000       0.686164        18.6715 
 281   0.0000       0.688715        18.7409 
 282   0.0000       0.694369        18.8948 
 283   0.0000       0.694760        18.9054 
 284   0.0000       0.700385        19.0584 
 285   0.0000       0.707168        19.2430 
 286   0.0000       0.708555        19.2808 
 287   0.0000       0.710700        19.3391 
 288   0.0000       0.713921        19.4268 
 289   0.0000       0.716822        19.5057 
 290   0.0000       0.721826        19.6419 
 291   0.0000       0.724950        19.7269 
 292   0.0000       0.728602        19.8263 
 293   0.0000       0.733457        19.9584 
 294   0.0000       0.739663        20.1272 
 295   0.0000       0.743717        20.2376 
 296   0.0000       0.747318        20.3356 
 297   0.0000       0.749141        20.3852 
 298   0.0000       0.752370        20.4730 
 299   0.0000       0.758485        20.6394 
 300   0.0000       0.760915        20.7056 
 301   0.0000       0.766850        20.8670 
 302   0.0000       0.768923        20.9235 
 303   0.0000       0.774143        21.0655 
 304   0.0000       0.777607        21.1598 
 305   0.0000       0.780051        21.2263 
 306   0.0000       0.783059        21.3081 
 307   0.0000       0.790749        21.5174 
 308   0.0000       0.792849        21.5745 
 309   0.0000       0.799621        21.7588 
 310   0.0000       0.800250        21.7759 
 311   0.0000       0.802350        21.8331 
 312   0.0000       0.808713        22.0062 
 313   0.0000       0.811462        22.0810 
 314   0.0000       0.813657        22.1407 
 315   0.0000       0.814647        22.1677 
 316   0.0000       0.823645        22.4125 
 317   0.0000       0.825617        22.4662 
 318   0.0000       0.830599        22.6017 
 319   0.0000       0.837281        22.7836 
 320   0.0000       0.840063        22.8593 
 321   0.0000       0.846344        23.0302 
 322   0.0000       0.848657        23.0931 
 323   0.0000       0.852292        23.1920 
 324   0.0000       0.854507        23.2523 
 325   0.0000       0.860447        23.4140 
 326   0.0000       0.867023        23.5929 
 327   0.0000       0.867860        23.6157 
 328   0.0000       0.873916        23.7805 
 329   0.0000       0.878008        23.8918 
 330   0.0000       0.884120        24.0581 
 331   0.0000       0.892340        24.2818 
 332   0.0000       0.899582        24.4789 
 333   0.0000       0.904992        24.6261 
 334   0.0000       0.907980        24.7074 
 335   0.0000       0.915590        24.9145 
 336   0.0000       0.916743        24.9458 
 337   0.0000       0.924170        25.1479 
 338   0.0000       0.928146        25.2561 
 339   0.0000       0.931799        25.3555 
 340   0.0000       0.936582        25.4857 
 341   0.0000       0.938921        25.5493 
 342   0.0000       0.942377        25.6434 
 343   0.0000       0.948007        25.7966 
 344   0.0000       0.949682        25.8422 
 345   0.0000       0.952948        25.9310 
 346   0.0000       0.958789        26.0900 
 347   0.0000       0.959323        26.1045 
 348   0.0000       0.963883        26.2286 
 349   0.0000       0.970006        26.3952 
 350   0.0000       0.971894        26.4466 
 351   0.0000       0.981105        26.6972 
 352   0.0000       0.989193        26.9173 
 353   0.0000       0.994104        27.0509 
 354   0.0000       0.999704        27.2033 
 355   0.0000       1.007861        27.4253 
 356   0.0000       1.011988        27.5376 
 357   0.0000       1.018621        27.7181 
 358   0.0000       1.021598        27.7991 
 359   0.0000       1.029292        28.0084 
 360   0.0000       1.040320        28.3085 
 361   0.0000       1.044724        28.4284 
 362   0.0000       1.053877        28.6775 
 363   0.0000       1.056605        28.7517 
 364   0.0000       1.064276        28.9604 
 365   0.0000       1.069303        29.0972 
 366   0.0000       1.076442        29.2915 
 367   0.0000       1.082100        29.4454 
 368   0.0000       1.086116        29.5547 
 369   0.0000       1.090770        29.6814 
 370   0.0000       1.092889        29.7390 
 371   0.0000       1.096328        29.8326 
 372   0.0000       1.102021        29.9875 
 373   0.0000       1.112349        30.2686 
 374   0.0000       1.125216        30.6187 
 375   0.0000       1.131963        30.8023 
 376   0.0000       1.136333        30.9212 
 377   0.0000       1.139673        31.0121 
 378   0.0000       1.146016        31.1847 
 379   0.0000       1.149293        31.2738 
 380   0.0000       1.164539        31.6887 
 381   0.0000       1.170141        31.8412 
 382   0.0000       1.171217        31.8704 
 383   0.0000       1.177163        32.0322 
 384   0.0000       1.179849        32.1053 
 385   0.0000       1.185255        32.2524 
 386   0.0000       1.193749        32.4836 
 387   0.0000       1.197987        32.5989 
 388   0.0000       1.204000        32.7625 
 389   0.0000       1.211253        32.9599 
 390   0.0000       1.216449        33.1013 
 391   0.0000       1.226047        33.3624 
 392   0.0000       1.228626        33.4326 
 393   0.0000       1.234539        33.5935 
 394   0.0000       1.247893        33.9569 
 395   0.0000       1.250182        34.0192 
 396   0.0000       1.253861        34.1193 
 397   0.0000       1.267237        34.4833 
 398   0.0000       1.269409        34.5424 
 399   0.0000       1.283216        34.9181 
 400   0.0000       1.285121        34.9699 
 401   0.0000       1.290140        35.1065 
 402   0.0000       1.292617        35.1739 
 403   0.0000       1.299188        35.3527 
 404   0.0000       1.306631        35.5553 
 405   0.0000       1.308951        35.6184 
 406   0.0000       1.313940        35.7541 
 407   0.0000       1.317829        35.8600 
 408   0.0000       1.323013        36.0010 
 409   0.0000       1.331404        36.2293 
 410   0.0000       1.335753        36.3477 
 411   0.0000       1.341914        36.5153 
 412   0.0000       1.353771        36.8380 
 413   0.0000       1.356125        36.9020 
 414   0.0000       1.364309        37.1247 
 415   0.0000       1.369515        37.2664 
 416   0.0000       1.379107        37.5274 
 417   0.0000       1.381678        37.5974 
 418   0.0000       1.391706        37.8702 
 419   0.0000       1.394430        37.9444 
 420   0.0000       1.398693        38.0604 
 421   0.0000       1.411049        38.3966 
 422   0.0000       1.413318        38.4583 
 423   0.0000       1.419407        38.6240 
 424   0.0000       1.431440        38.9515 
 425   0.0000       1.435456        39.0607 
 426   0.0000       1.438117        39.1331 
 427   0.0000       1.448949        39.4279 
 428   0.0000       1.452201        39.5164 
 429   0.0000       1.456315        39.6283 
 430   0.0000       1.466139        39.8957 
 431   0.0000       1.467718        39.9386 
 432   0.0000       1.471675        40.0463 
 433   0.0000       1.479498        40.2592 
 434   0.0000       1.480265        40.2801 
 435   0.0000       1.489835        40.5405 
 436   0.0000       1.495969        40.7074 
 437   0.0000       1.502313        40.8800 
 438   0.0000       1.505428        40.9648 
 439   0.0000       1.511094        41.1190 
 440   0.0000       1.515305        41.2336 
 441   0.0000       1.522067        41.4176 
 442   0.0000       1.531913        41.6855 
 443   0.0000       1.536053        41.7981 
 444   0.0000       1.542848        41.9830 
 445   0.0000       1.547701        42.1151 
 446   0.0000       1.555600        42.3300 
 447   0.0000       1.558365        42.4053 
 448   0.0000       1.566656        42.6309 
 449   0.0000       1.568555        42.6826 
 450   0.0000       1.569391        42.7053 
 451   0.0000       1.575094        42.8605 
 452   0.0000       1.578048        42.9409 
 453   0.0000       1.581848        43.0443 
 454   0.0000       1.585990        43.1570 
 455   0.0000       1.596502        43.4430 
 456   0.0000       1.604217        43.6530 
 457   0.0000       1.607018        43.7292 
 458   0.0000       1.608502        43.7696 
 459   0.0000       1.616323        43.9824 
 460   0.0000       1.617761        44.0215 
 461   0.0000       1.624043        44.1925 
 462   0.0000       1.627245        44.2796 
 463   0.0000       1.629713        44.3467 
 464   0.0000       1.632658        44.4269 
 465   0.0000       1.641730        44.6737 
 466   0.0000       1.645010        44.7630 
 467   0.0000       1.647118        44.8204 
 468   0.0000       1.651617        44.9428 
 469   0.0000       1.656306        45.0704 
 470   0.0000       1.658463        45.1291 
 471   0.0000       1.670104        45.4458 
 472   0.0000       1.680289        45.7230 
 473   0.0000       1.682189        45.7747 
 474   0.0000       1.686438        45.8903 
 475   0.0000       1.688963        45.9590 
 476   0.0000       1.694159        46.1004 
 477   0.0000       1.696806        46.1724 
 478   0.0000       1.707884        46.4739 
 479   0.0000       1.709686        46.5229 
 480   0.0000       1.714763        46.6611 
 481   0.0000       1.719341        46.7857 
 482   0.0000       1.724685        46.9311 
 483   0.0000       1.727684        47.0127 
 484   0.0000       1.734863        47.2080 
 485   0.0000       1.740914        47.3727 
 486   0.0000       1.745906        47.5085 
 487   0.0000       1.749752        47.6132 
 488   0.0000       1.756069        47.7851 
 489   0.0000       1.761482        47.9324 
 490   0.0000       1.763566        47.9891 
 491   0.0000       1.773495        48.2592 
 492   0.0000       1.774946        48.2987 
 493   0.0000       1.780994        48.4633 
 494   0.0000       1.786329        48.6085 
 495   0.0000       1.786919        48.6245 
 496   0.0000       1.790137        48.7121 
 497   0.0000       1.792269        48.7701 
 498   0.0000       1.800023        48.9811 
 499   0.0000       1.802473        49.0478 
 500   0.0000       1.806397        49.1546 
 501   0.0000       1.810201        49.2581 
 502   0.0000       1.818540        49.4850 
 503   0.0000       1.822204        49.5847 
 504   0.0000       1.827745        49.7355 
 505   0.0000       1.835689        49.9516 
 506   0.0000       1.837898        50.0118 
 507   0.0000       1.842919        50.1484 
 508   0.0000       1.851323        50.3771 
 509   0.0000       1.856287        50.5121 
 510   0.0000       1.859975        50.6125 
 511   0.0000       1.864351        50.7316 
 512   0.0000       1.872462        50.9523 
 513   0.0000       1.875220        51.0273 
 514   0.0000       1.884559        51.2815 
 515   0.0000       1.889778        51.4235 
 516   0.0000       1.895825        51.5880 
 517   0.0000       1.898198        51.6526 
 518   0.0000       1.910044        51.9749 
 519   0.0000       1.917335        52.1733 
 520   0.0000       1.921883        52.2971 
 521   0.0000       1.928420        52.4750 
 522   0.0000       1.934982        52.6535 
 523   0.0000       1.937002        52.7085 
 524   0.0000       1.944589        52.9150 
 525   0.0000       1.954476        53.1840 
 526   0.0000       1.958773        53.3009 
 527   0.0000       1.965909        53.4951 
 528   0.0000       1.976941        53.7953 
 529   0.0000       1.977418        53.8083 
 530   0.0000       1.984702        54.0065 
 531   0.0000       1.989757        54.1440 
 532   0.0000       1.992349        54.2146 
 533   0.0000       1.997195        54.3464 
 534   0.0000       2.003034        54.5053 
 535   0.0000       2.011173        54.7268 
 536   0.0000       2.021444        55.0063 
 537   0.0000       2.022536        55.0360 
 538   0.0000       2.025085        55.1054 
 539   0.0000       2.032694        55.3124 
 540   0.0000       2.042063        55.5674 
 541   0.0000       2.045377        55.6575 
 542   0.0000       2.054458        55.9047 
 543   0.0000       2.054779        55.9134 
 544   0.0000       2.056718        55.9661 
 545   0.0000       2.067458        56.2584 
 546   0.0000       2.071459        56.3673 
 547   0.0000       2.074782        56.4577 
 548   0.0000       2.084750        56.7289 
 549   0.0000       2.092954        56.9522 
 550   0.0000       2.093327        56.9623 
 551   0.0000       2.105606        57.2964 
 552   0.0000       2.114323        57.5337 
 553   0.0000       2.122289        57.7504 
 554   0.0000       2.130667        57.9784 
 555   0.0000       2.138516        58.1920 
 556   0.0000       2.141384        58.2700 
 557   0.0000       2.147703        58.4420 
 558   0.0000       2.157821        58.7173 
 559   0.0000       2.165476        58.9256 
 560   0.0000       2.169444        59.0336 
 561   0.0000       2.172642        59.1206 
 562   0.0000       2.178333        59.2754 
 563   0.0000       2.179296        59.3017 
 564   0.0000       2.184400        59.4405 
 565   0.0000       2.188637        59.5558 
 566   0.0000       2.189673        59.5840 
 567   0.0000       2.193097        59.6772 
 568   0.0000       2.205288        60.0089 
 569   0.0000       2.206719        60.0479 
 570   0.0000       2.222016        60.4641 
 571   0.0000       2.227321        60.6085 
 572   0.0000       2.231723        60.7283 
 573   0.0000       2.234225        60.7963 
 574   0.0000       2.237515        60.8859 
 575   0.0000       2.246436        61.1286 
 576   0.0000       2.249892        61.2227 
 577   0.0000       2.260278        61.5053 
 578   0.0000       2.263298        61.5875 
 579   0.0000       2.277214        61.9662 
 580   0.0000       2.279788        62.0362 
 581   0.0000       2.283525        62.1379 
 582   0.0000       2.284900        62.1753 
 583   0.0000       2.294395        62.4337 
 584   0.0000       2.300843        62.6091 
 585   0.0000       2.305639        62.7396 
 586   0.0000       2.310408        62.8694 
 587   0.0000       2.315962        63.0205 
 588   0.0000       2.320708        63.1497 
 589   0.0000       2.325184        63.2715 
 590   0.0000       2.333923        63.5093 
 591   0.0000       2.335923        63.5637 
 592   0.0000       2.345119        63.8139 
 593   0.0000       2.352447        64.0133 
 594   0.0000       2.358464        64.1771 
 595   0.0000       2.369150        64.4678 
 596   0.0000       2.380112        64.7661 
 597   0.0000       2.383275        64.8522 
 598   0.0000       2.387378        64.9639 
 599   0.0000       2.403336        65.3981 
 600   0.0000       2.411317        65.6153 
 601   0.0000       2.424289        65.9683 
 602   0.0000       2.430123        66.1270 
 603   0.0000       2.434547        66.2474 
 604   0.0000       2.439174        66.3733 
 605   0.0000       2.446332        66.5681 
 606   0.0000       2.452236        66.7287 
 607   0.0000       2.464160        67.0532 
 608   0.0000       2.483211        67.5716 
 609   0.0000       2.495292        67.9004 
 610   0.0000       2.502846        68.1059 
 611   0.0000       2.514738        68.4295 
 612   0.0000       2.521442        68.6119 
 613   0.0000       2.531897        68.8964 
 614   0.0000       2.536207        69.0137 
 615   0.0000       2.543108        69.2015 
 616   0.0000       2.554328        69.5068 
 617   0.0000       2.560811        69.6832 
 618   0.0000       2.564742        69.7902 
 619   0.0000       2.579116        70.1813 
 620   0.0000       2.586013        70.3690 
 621   0.0000       2.602609        70.8206 
 622   0.0000       2.611451        71.0612 
 623   0.0000       2.622237        71.3547 
 624   0.0000       2.624313        71.4112 
 625   0.0000       2.637671        71.7747 
 626   0.0000       2.641098        71.8679 
 627   0.0000       2.645940        71.9997 
 628   0.0000       2.651959        72.1635 
 629   0.0000       2.662918        72.4617 
 630   0.0000       2.668728        72.6198 
 631   0.0000       2.670432        72.6662 
 632   0.0000       2.682338        72.9901 
 633   0.0000       2.690176        73.2034 
 634   0.0000       2.692045        73.2543 
 635   0.0000       2.696738        73.3820 
 636   0.0000       2.707378        73.6715 
 637   0.0000       2.710719        73.7624 
 638   0.0000       2.712510        73.8112 
 639   0.0000       2.717633        73.9506 
 640   0.0000       2.724080        74.1260 
 641   0.0000       2.725790        74.1725 
 642   0.0000       2.729713        74.2793 
 643   0.0000       2.733781        74.3900 
 644   0.0000       2.735162        74.4275 
 645   0.0000       2.740248        74.5659 
 646   0.0000       2.746068        74.7243 
 647   0.0000       2.753232        74.9193 
 648   0.0000       2.762028        75.1586 
 649   0.0000       2.769161        75.3527 
 650   0.0000       2.773608        75.4737 
 651   0.0000       2.778374        75.6034 
 652   0.0000       2.782192        75.7073 
 653   0.0000       2.786298        75.8190 
 654   0.0000       2.793641        76.0188 
 655   0.0000       2.803432        76.2853 
 656   0.0000       2.807231        76.3886 
 657   0.0000       2.812167        76.5229 
 658   0.0000       2.814257        76.5798 
 659   0.0000       2.820217        76.7420 
 660   0.0000       2.827448        76.9388 
 661   0.0000       2.828548        76.9687 
 662   0.0000       2.835051        77.1457 
 663   0.0000       2.839224        77.2592 
 664   0.0000       2.844184        77.3942 
 665   0.0000       2.845018        77.4169 
 666   0.0000       2.853570        77.6496 
 667   0.0000       2.860455        77.8369 
 668   0.0000       2.866857        78.0111 
 669   0.0000       2.870974        78.1232 
 670   0.0000       2.882316        78.4318 
 671   0.0000       2.885600        78.5212 
 672   0.0000       2.889437        78.6256 
 673   0.0000       2.896686        78.8228 
 674   0.0000       2.898503        78.8723 
 675   0.0000       2.906665        79.0944 
 676   0.0000       2.910144        79.1890 
 677   0.0000       2.917579        79.3914 
 678   0.0000       2.920660        79.4752 
 679   0.0000       2.930268        79.7366 
 680   0.0000       2.932787        79.8052 
 681   0.0000       2.933519        79.8251 
 682   0.0000       2.934289        79.8461 
 683   0.0000       2.942784        80.0772 
 684   0.0000       2.944917        80.1353 
 685   0.0000       2.954279        80.3900 
 686   0.0000       2.961172        80.5776 
 687   0.0000       2.963728        80.6471 
 688   0.0000       2.973338        80.9086 
 689   0.0000       2.980257        81.0969 
 690   0.0000       2.984038        81.1998 
 691   0.0000       2.989731        81.3547 
 692   0.0000       2.993819        81.4660 
 693   0.0000       2.997041        81.5536 
 694   0.0000       3.007221        81.8307 
 695   0.0000       3.008641        81.8693 
 696   0.0000       3.016175        82.0743 
[...]
 120   8.600     144.2   0.054775   0.053426  -5.478402  -5.957717     0.07 (  48->  72)    0.04 (  66->  73)    0.04 (  60->  73)
 121   8.612     144.0   0.003102   0.003044  11.038631  11.405564     0.16 (  48->  72)    0.07 (  55->  74)    0.07 (  55->  73)
 122   8.616     143.9   0.002801   0.003101  -3.340439  -1.670688     0.07 (  66->  90)    0.05 (  71-> 104)    0.05 (  67->  95)
 123   8.648     143.4   0.020135   0.018684  -27.154192  -22.753761     0.34 (  70->  77)    0.14 (  71->  77)    0.08 (  67->  77)
 124   8.652     143.3   0.001138   0.001184  -7.257231  -7.937830     0.08 (  67->  75)    0.07 (  66->  76)    0.06 (  64->  76)
 125   8.659     143.2   0.015500   0.012742  16.260819  13.402703     0.05 (  64->  85)    0.05 (  66->  78)    0.03 (  64->  76)
 126   8.674     142.9   0.029233   0.029610  14.700541  14.311243     0.05 (  66->  73)    0.04 (  60->  73)    0.03 (  66->  74)
 127   8.679     142.9   0.020439   0.018765  38.485059  34.509318     0.06 (  70->  86)    0.03 (  70->  77)    0.03 (  71->  99)
 128   8.687     142.7   0.045475   0.042043  31.010007  30.038907     0.05 (  68->  75)    0.03 (  51->  72)    0.03 (  63->  76)
 129   8.691     142.7   0.048044   0.039751  -16.987748  -14.739767     0.05 (  51->  72)    0.04 (  68->  75)    0.03 (  59->  75)
 130   8.738     141.9   0.024051   0.021250  46.998631  41.277437     0.09 (  69->  99)    0.07 (  62->  83)    0.04 (  71-> 100)
 131   8.762     141.5   0.101899   0.093381  20.280682  18.542142     0.05 (  71->  84)    0.04 (  50->  73)    0.02 (  67->  84)
 132   8.770     141.4   0.029727   0.029895  11.955352  12.604133     0.14 (  65->  84)    0.07 (  65->  88)    0.04 (  50->  73)
 133   8.776     141.3   0.017935   0.017823   7.465762   8.916472     0.09 (  50->  73)    0.09 (  71->  84)    0.04 (  67->  84)
 134   8.781     141.2   0.005593   0.004525  -3.969311  -5.697282     0.07 (  66->  79)    0.06 (  65->  84)    0.05 (  58->  78)
 135   8.785     141.1   0.082250   0.073260  100.920700  94.216576     0.09 (  50->  73)    0.05 (  53->  73)    0.04 (  60->  74)
 136   8.796     141.0   0.027600   0.024007  -67.400475  -63.110484     0.18 (  52->  73)    0.10 (  53->  73)    0.04 (  52->  74)
 137   8.823     140.5   0.071798   0.061278  19.071342  14.928327     0.13 (  59->  77)    0.10 (  69->  77)    0.08 (  61->  77)
 138   8.840     140.3   0.018127   0.016865  -4.675233  -1.998660     0.04 (  59->  75)    0.03 (  69->  97)    0.03 (  68->  76)
 139   8.856     140.0   0.007512   0.006363   3.887736   3.014775     0.08 (  59->  75)    0.06 (  71->  84)    0.06 (  59->  76)
 140   8.863     139.9   0.018582   0.019523  -2.154869  -2.421640     0.07 (  69->  99)    0.05 (  62->  83)    0.04 (  69->  96)
 141   8.867     139.8   0.028865   0.027957   6.178150   6.148507     0.04 (  44->  72)    0.04 (  71->  84)    0.04 (  69->  77)
 142   8.877     139.7   0.006141   0.006338  -43.260714  -44.134295     0.12 (  69->  77)    0.10 (  71->  84)    0.03 (  67->  84)
 143   8.880     139.6   0.043096   0.041567  16.007218  16.933706     0.04 (  71->  84)    0.03 (  59->  76)    0.03 (  61->  75)
 144   8.896     139.4   0.082917   0.080369  -42.619109  -42.651651     0.30 (  69->  77)    0.04 (  67->  77)    0.04 (  71->  84)
 145   8.914     139.1   0.065868   0.065420  -86.599181  -85.670329     0.13 (  69->  77)    0.13 (  61->  77)    0.11 (  59->  77)
 146   8.929     138.9   0.072744   0.070740  91.338855  88.809021     0.03 (  64->  87)    0.03 (  65->  86)    0.03 (  62->  80)
 147   8.939     138.7   0.069129   0.064645  -28.251444  -29.538039     0.04 (  69->  98)    0.04 (  69->  97)    0.03 (  67->  86)
 148   8.955     138.4   0.020258   0.017711  27.917155  24.957184     0.03 (  71->  82)    0.03 (  61->  88)    0.02 (  71->  95)
 149   8.966     138.3   0.028054   0.025851  40.311236  41.657287     0.04 (  64->  80)    0.04 (  44->  72)    0.03 (  62->  80)
 150   8.981     138.0   0.014405   0.013361  -42.447672  -39.107146     0.08 (  65->  92)    0.05 (  71->  82)    0.04 (  65->  78)
 151   8.988     137.9   0.017528   0.017882  -8.795719  -8.036363     0.06 (  65->  92)    0.04 (  63->  74)    0.03 (  65->  85)
 152   9.008     137.6   0.003019   0.002518  -3.488518  -3.297190     0.04 (  44->  72)    0.03 (  63->  78)    0.03 (  56->  76)
 153   9.017     137.5   0.012560   0.012724  12.920053  10.332447     0.08 (  71->  82)    0.03 (  58->  78)    0.02 (  70->  85)
 154   9.035     137.2   0.014363   0.012815  13.731232  13.134242     0.05 (  67->  87)    0.05 (  70->  86)    0.05 (  71-> 102)
 155   9.065     136.8   0.001912   0.001604   3.917702   6.140737     0.04 (  69-> 100)    0.03 (  70-> 101)    0.03 (  71-> 102)
 156   9.078     136.6   0.019744   0.020069  -21.289899  -20.805800     0.09 (  68->  79)    0.08 (  61->  74)    0.04 (  68->  88)
 157   9.096     136.3   0.004351   0.003620   1.207098   1.252235     0.03 (  67->  91)    0.02 (  70-> 102)    0.02 (  69->  99)
 158   9.114     136.0   0.001761   0.001562  -13.868716  -13.139896     0.04 (  58->  78)    0.03 (  66->  85)    0.03 (  58->  74)
 159   9.121     135.9   0.018367   0.016810  26.767148  23.609946     0.06 (  56->  76)    0.05 (  56->  75)    0.03 (  57->  76)
 160   9.132     135.8   0.017162   0.014332  19.820957  17.722357     0.05 (  68->  79)    0.04 (  64->  78)    0.04 (  47->  72)
 161   9.144     135.6   0.008473   0.008052  -4.566821  -5.660254     0.06 (  68->  79)    0.04 (  61->  79)    0.03 (  68->  88)
 162   9.155     135.4   0.001300   0.000804   5.227971   4.323429     0.05 (  47->  72)    0.03 (  61->  74)    0.02 (  61->  73)
 163   9.168     135.2   0.003014   0.002566  -11.366530  -8.830586     0.05 (  64->  87)    0.04 (  64->  86)    0.04 (  67->  86)
 164   9.185     135.0   0.016288   0.014615   3.737655   3.371304     0.04 (  60->  78)    0.03 (  60->  75)    0.03 (  66->  85)
 165   9.204     134.7   0.011630   0.010017  -13.366566  -12.788266     0.03 (  67->  86)    0.02 (  61->  74)    0.02 (  61->  73)
 166   9.210     134.6   0.020770   0.017560  -41.732877  -38.302676     0.08 (  48->  73)    0.06 (  46->  73)    0.06 (  46->  72)
 167   9.233     134.3   0.036556   0.030943  -20.276831  -19.050407     0.04 (  66->  85)    0.04 (  70->  80)    0.03 (  67->  86)
 168   9.237     134.2   0.052816   0.040390  -44.710329  -40.012191     0.03 (  63->  92)    0.03 (  65->  91)    0.02 (  66->  92)
 169   9.261     133.9   0.005309   0.005318   7.609280   7.728513     0.49 (  68->  78)    0.21 (  68->  79)    0.06 (  68->  85)
 170   9.264     133.8   0.027176   0.024617   0.795776   1.074262     0.03 (  54->  76)    0.03 (  49->  73)    0.02 (  48->  73)
 171   9.278     133.6   0.009977   0.008613  22.897930  19.843270     0.05 (  70-> 103)    0.04 (  56->  78)    0.03 (  71-> 106)
 172   9.285     133.5   0.019376   0.015254  -45.764690  -40.546249     0.08 (  56->  78)    0.03 (  66->  91)    0.03 (  56->  79)
 173   9.300     133.3   0.034103   0.028477  -42.116920  -36.157914     0.06 (  71-> 103)    0.05 (  70-> 104)    0.05 (  69-> 103)
 174   9.308     133.2   0.097775   0.085939  -18.701911  -19.309818     0.04 (  56->  78)    0.03 (  55->  75)    0.03 (  63->  92)
 175   9.329     132.9   0.018758   0.015662  -2.956869  -2.332017     0.06 (  62->  73)    0.04 (  71->  83)    0.03 (  60->  73)
 176   9.337     132.8   0.232059   0.196879  13.082935  15.147568     0.08 (  55->  75)    0.08 (  55->  76)    0.04 (  54->  75)
 177   9.346     132.7   0.005520   0.004177  18.300327  17.814286     0.04 (  62->  74)    0.03 (  56->  78)    0.02 (  63->  92)
 178   9.365     132.4   0.028322   0.025222  -3.569483  -2.355453     0.07 (  71-> 102)    0.06 (  69-> 102)    0.02 (  62->  80)
 179   9.372     132.3   0.010241   0.009636  44.203401  43.444258     0.04 (  69-> 102)    0.03 (  47->  72)    0.03 (  69->  91)
 180   9.383     132.1   0.085131   0.075230  -23.133049  -20.160605     0.04 (  62->  73)    0.04 (  55->  75)    0.03 (  60->  73)
 181   9.397     131.9   0.011369   0.009272  15.889136  15.636765     0.04 (  61->  74)    0.03 (  62->  73)    0.03 (  67->  89)
 182   9.414     131.7   0.002778   0.002317  -7.355334  -5.409433     0.03 (  71->  82)    0.03 (  61->  81)    0.02 (  67->  96)
 183   9.425     131.5   0.022477   0.019239  -12.740344  -11.157767     0.10 (  48->  73)    0.04 (  55->  76)    0.03 (  48->  74)
 184   9.437     131.4   0.003214   0.002835   3.694062   7.994716     0.08 (  71->  82)    0.05 (  71->  81)    0.04 (  61->  82)
 185   9.440     131.3   0.058515   0.049524   9.647709   6.985725     0.06 (  47->  72)    0.04 (  55->  75)    0.03 (  48->  73)
 186   9.446     131.3   0.014623   0.013849  24.745535  23.921669     0.08 (  71->  82)    0.05 (  71-> 106)    0.04 (  67->  96)
 187   9.460     131.1   0.013427   0.011711  -10.324850  -13.401973     0.05 (  71->  81)    0.04 (  70->  85)    0.03 (  70->  81)
 188   9.467     131.0   0.002910   0.002047   8.959705   6.736867     0.06 (  59->  84)    0.04 (  68-> 101)    0.03 (  61->  84)
 189   9.475     130.9   0.002072   0.001844  -4.601970  -4.735320     0.06 (  69-> 100)    0.05 (  70->  82)    0.04 (  69-> 102)
 190   9.513     130.3   0.002203   0.002076   9.487918   8.981245     0.07 (  68-> 101)    0.06 (  55->  77)    0.03 (  61->  84)
 191   9.518     130.3   0.001156   0.001374  -3.522422  -2.217659     0.22 (  55->  77)    0.13 (  54->  77)    0.07 (  48->  77)
 192   9.522     130.2   0.000373   0.000427  -4.087221  -4.298017     0.05 (  71-> 105)    0.03 (  71->  83)    0.03 (  70->  83)
 193   9.532     130.1   0.002434   0.003066  -4.965111  -5.851679     0.04 (  68-> 101)    0.04 (  67->  80)    0.03 (  59->  84)
 194   9.537     130.0   0.022850   0.022590  21.978904  24.437847     0.14 (  67->  77)    0.05 (  66->  77)    0.04 (  64->  77)
 195   9.559     129.7   0.028293   0.026238  -63.082900  -63.299323     0.06 (  59->  84)    0.03 (  57->  78)    0.03 (  70->  85)
 196   9.567     129.6   0.073939   0.065179  41.816613  41.383771     0.13 (  67->  77)    0.08 (  66->  77)    0.04 (  60->  77)
 197   9.590     129.3   0.025936   0.022596  -15.719879  -11.111711     0.03 (  61->  88)    0.03 (  68-> 101)    0.03 (  60->  89)
 198   9.598     129.2   0.016095   0.013620  -13.637146  -14.577379     0.03 (  66->  76)    0.03 (  57->  79)    0.02 (  56->  72)
 199   9.617     128.9   0.037720   0.035049  -48.113511  -45.461475     0.05 (  66->  75)    0.04 (  65->  76)    0.03 (  69->  81)
 200   9.622     128.9   0.004326   0.003487  -4.953616  -4.573898     0.06 (  65->  76)    0.06 (  65->  79)    0.06 (  65->  75)
 201   9.639     128.6   0.040989   0.034723  16.723764  19.062786     0.14 (  68->  80)    0.07 (  68-> 103)    0.07 (  68-> 109)
 202   9.648     128.5   0.005720   0.003590  -8.819936  -7.304115     0.09 (  64->  78)    0.03 (  64->  91)    0.03 (  71-> 105)
 203   9.653     128.4   0.063615   0.063473  -100.483169  -92.266044     0.08 (  52->  77)    0.08 (  52->  82)    0.06 (  50->  82)
 204   9.655     128.4   0.023401   0.025346  76.747780  71.425396     0.11 (  52->  77)    0.10 (  52->  82)    0.08 (  53->  77)
 205   9.663     128.3   0.016017   0.014987  -5.712619  -5.209259     0.05 (  66->  76)    0.04 (  66->  75)    0.04 (  60->  76)
 206   9.685     128.0   0.012589   0.010545   4.229455   3.052325     0.05 (  52->  77)    0.04 (  53->  77)    0.03 (  71-> 104)
 207   9.686     128.0   0.009326   0.008058  -1.575992  -0.540418     0.04 (  52->  77)    0.04 (  70->  84)    0.03 (  53->  77)
 208   9.695     127.9   0.025044   0.020499  -16.557533  -14.383249     0.07 (  62->  79)    0.03 (  56->  72)    0.02 (  53->  72)
 209   9.700     127.8   0.003715   0.002791  -5.208720  -4.263293     0.33 (  70->  84)    0.08 (  67->  84)    0.06 (  71->  84)
 210   9.716     127.6   0.030178   0.025459  -5.984646  -7.519445     0.05 (  42->  72)    0.03 (  59->  81)    0.02 (  62->  80)
 211   9.724     127.5   0.107328   0.088553  77.731651  70.148670     0.03 (  71-> 105)    0.03 (  70->  84)    0.02 (  69->  81)
 212   9.727     127.5   0.009942   0.008494  -34.166975  -32.034388     0.02 (  70-> 105)    0.02 (  64->  91)    0.02 (  62->  79)
 213   9.738     127.3   0.006681   0.005710  -39.574684  -36.507275     0.06 (  59->  81)    0.03 (  59->  82)    0.03 (  59->  85)
 214   9.758     127.1   0.000771   0.000730   1.624428   2.339634     0.24 (  63->  77)    0.23 (  50->  77)    0.08 (  66->  77)
 215   9.762     127.0   0.009359   0.007732  -11.251450  -10.137403     0.04 (  71->  87)    0.03 (  67->  90)    0.03 (  71-> 105)
 216   9.770     126.9   0.077377   0.062966  25.753620  22.858153     0.06 (  70->  84)    0.04 (  66->  90)    0.03 (  70-> 106)
 217   9.778     126.8   0.047243   0.040055   8.204880   8.623906     0.02 (  57->  72)    0.02 (  62->  87)    0.02 (  56->  72)
 218   9.804     126.5   0.033723   0.028098  26.997322  23.110888     0.20 (  68->  80)    0.11 (  68->  85)    0.06 (  68->  79)
 219   9.808     126.4   0.104955   0.097881  -26.637774  -25.671577     0.04 (  45->  73)    0.04 (  69-> 105)    0.03 (  69-> 102)
 220   9.827     126.2   0.011072   0.009963  -3.837929  -2.651642     0.23 (  45->  73)    0.08 (  46->  73)    0.06 (  45->  72)
 221   9.838     126.0   0.021118   0.019303  -12.622330  -13.075614     0.04 (  67-> 100)    0.03 (  45->  73)    0.03 (  71->  88)
 222   9.850     125.9   0.034677   0.029087  -3.419666  -2.599725     0.04 (  71-> 110)    0.03 (  69-> 102)    0.03 (  69->  84)
 223   9.857     125.8   0.041558   0.035042  29.385136  27.413807     0.05 (  71-> 110)    0.03 (  65->  78)    0.03 (  63->  90)
 224   9.879     125.5   0.014088   0.012604   2.096011   1.707635     0.15 (  50->  77)    0.13 (  63->  77)    0.05 (  69->  84)
 225   9.883     125.5   0.022915   0.020120   0.524953   0.025165     0.12 (  50->  77)    0.10 (  63->  77)    0.03 (  69->  84)
 226   9.884     125.4   0.011920   0.010753  18.586661  18.405921     0.08 (  69->  84)    0.05 (  69-> 105)    0.02 (  71->  86)
 227   9.896     125.3   0.019587   0.017716  14.762127  13.689444     0.30 (  69->  84)    0.04 (  67->  84)    0.03 (  59->  84)
 228   9.913     125.1   0.016969   0.016235  -28.593647  -28.591364     0.05 (  65->  80)    0.03 (  70-> 105)    0.03 (  69-> 105)
 229   9.916     125.0   0.007469   0.006222   4.130346   4.014115     0.07 (  65->  80)    0.06 (  69->  84)    0.04 (  63->  85)
 230   9.926     124.9   0.006433   0.004046  -25.698483  -21.751991     0.04 (  69-> 105)    0.03 (  51->  72)    0.03 (  60->  79)
 231   9.939     124.7   0.005934   0.005379  -2.672024  -3.188594     0.10 (  50->  72)    0.05 (  46->  73)    0.03 (  50->  74)
 232   9.953     124.6   0.002446   0.002383  -5.688332  -5.900203     0.12 (  65->  85)    0.07 (  63->  78)    0.06 (  65->  93)
 233   9.956     124.5   0.040890   0.036612  75.757572  72.907905     0.20 (  68->  80)    0.05 (  68->  81)    0.04 (  68->  85)
 234   9.960     124.5   0.041861   0.035305  14.994306  14.520480     0.04 (  70->  82)    0.04 (  70->  81)    0.04 (  69->  82)
 235   9.971     124.3   0.010759   0.008084  -5.028440  -4.341582     0.04 (  48->  72)    0.03 (  70->  82)    0.02 (  69->  82)
 236   9.976     124.3   0.006102   0.005356  -0.670677  -1.900955     0.12 (  70->  82)    0.12 (  69->  82)    0.09 (  70->  81)
 237   9.992     124.1   0.010974   0.008639  -2.636454  -1.882252     0.05 (  70->  82)    0.04 (  69->  81)    0.03 (  60->  79)
 238   9.999     124.0   0.041564   0.032547  -25.139956  -26.044342     0.03 (  61->  75)    0.03 (  61->  76)    0.03 (  69-> 105)

sTD-DFT done

Total run time:       34.362 sec

           *** ORCA-CIS/TD-DFT FINISHED WITHOUT ERROR ***


-------------------------------------------------------------------------------
                          DFT DISPERSION CORRECTION                            
                                                                               
                              DFTD3 V3.1  Rev 1                                
                              USING zero damping                               
-------------------------------------------------------------------------------
The omegaB97X-D3 functional is recognized. Fit by Chai et al.
Active option DFTDOPT                   ...         3   

molecular C6(AA) [au] = 36062.968637 


            DFT-D V3
 parameters
 s6 scaling factor         :     1.0000 
 rs6 scaling factor        :     1.2810 
 s8 scaling factor         :     1.0000 
 rs8 scaling factor        :     1.0940 
 Damping factor alpha6     :    14.0000 
 Damping factor alpha8     :    16.0000 
 ad hoc parameters k1-k3   :    16.0000     1.3333    -4.0000 

 Edisp/kcal,au: -13.692846736805  -0.021820937918 
 E6   /kcal   :  -6.426100323 
 E8   /kcal   :  -7.266746414 
 % E8         :  53.069654206 

-------------------------   ----------------
Dispersion correction           -0.021820938
-------------------------   ----------------


-------------------------   --------------------
FINAL SINGLE POINT ENERGY     -2110.017220395557
-------------------------   --------------------


                            ***************************************
                            *     ORCA property calculations      *
                            ***************************************

                                    ---------------------
                                    Active property flags
                                    ---------------------
   (+) Dipole Moment
   (+) Quadrupole Moment


------------------------------------------------------------------------------
                       ORCA ELECTRIC PROPERTIES CALCULATION
------------------------------------------------------------------------------

Dipole Moment Calculation                       ... on
Quadrupole Moment Calculation                   ... on
Polarizability Calculation                      ... off
GBWName                                         ... total_job2.gbw
Electron density file                           ... total_job2.scfp.tmp

-------------
DIPOLE MOMENT
-------------
                                X             Y             Z
Electronic contribution:     11.70372       9.07535       1.27473
Nuclear contribution   :    -12.54012      -8.95286      -1.17491
                        -----------------------------------------
Total Dipole Moment    :     -0.83640       0.12249       0.09982
                        -----------------------------------------
Magnitude (a.u.)       :      0.85119
Magnitude (Debye)      :      2.16356


------------------------
QUADRUPOLE MOMENT (A.U.)
------------------------

                XX           YY           ZZ           XY           XZ           YZ
  NUC     19997.47275   2612.17543   1150.75228    610.20308  -2483.97924    911.97673
  EL     -20097.96782  -2747.60469  -1297.82394   -609.50735   2474.17246   -906.76406
  TOT      -100.49507   -135.42927   -147.07166      0.69573     -9.80678      5.21267

--------------------------------------------------------------------------
[[4106,1],3]: A high-performance Open MPI point-to-point messaging module
was unable to find any relevant network interfaces:

Module: OpenFabrics (openib)
  Host: cx1-136-5-2

Another transport will be used instead, although this may result in
lower performance.
--------------------------------------------------------------------------

Timings for individual modules:

Sum of individual times         ...      188.400 sec (=   3.140 min)
GTO integral calculation        ...        5.795 sec (=   0.097 min)   3.1 %
SCF iterations                  ...      144.571 sec (=   2.410 min)  76.7 %
CIS module                      ...       38.034 sec (=   0.634 min)  20.2 %



                             ****ORCA TERMINATED NORMALLY****
TOTAL RUN TIME: 0 days 0 hours 11 minutes 49 seconds 721 msec
