   45
Geometry Step: 1335
    C     -4.89128075      1.71196062      2.54678163      4.11530398
    C     -4.20685821      0.91817080      1.63014087      4.08024772
    C     -4.94026694      0.09314832      0.75609202      4.03030911
    C     -6.36094314      0.11315225      0.83947267      3.86725778
    C     -7.05290132      0.90690891      1.76706347      4.16504986
    C     -6.29544033      1.70524832      2.62019288      4.06731708
    C     -4.60133192     -0.82534642     -0.31986737      4.04211223
    C     -5.84353462     -1.29593663     -0.84071287      3.86852846
    N     -6.88220918     -0.73545318     -0.12139387      5.17481606
    C     -5.93529487     -2.17270269     -1.93159883      4.15998306
    C     -4.74370117     -2.57776093     -2.52936095      4.07266965
    C     -3.50861931     -2.13191053     -2.04297332      4.13568966
    C     -3.39808596     -1.27266137     -0.93253158      3.97708893
    H     -2.59906971     -2.48240392     -2.52555584      0.91536028
    H     -7.86710692     -0.89419211     -0.29504426      0.78431030
    H     -4.76847921     -3.25058813     -3.38167086      0.91671582
    H     -3.12148854      0.93695317      1.59722437      0.89657789
    H     -8.13863941      0.90112114      1.81267096      0.91825654
    H     -6.79601847      2.33392278      3.35183811      0.92196527
    H     -4.32974242      2.34948481      3.22417825      0.91952688
    S      2.67276806      0.27434168      1.23433721      6.04547353
    C      4.08915526      0.28121241      0.14925598      3.81876130
    N      3.77916653     -0.04604974     -1.09767259      5.15700505
    N      2.45593824     -0.31671455     -1.28873443      5.18089895
    C      1.72888282     -0.20036801     -0.18439214      3.82857045
    C      0.30407691     -0.43403347     -0.12977546      3.83599403
    N     -0.41892104     -0.32192232      0.97700107      5.18076311
    N     -1.74538998     -0.59087199      0.78571718      5.18394129
    C     -2.05850224     -0.90529018     -0.46259973      3.80686335
    S     -0.64457375     -0.90429874     -1.54600443      6.03763279
    C      7.92790557      1.28024343      1.67921615      3.92252253
    N      6.86614234      1.27034356      2.48300461      5.27268758
    C      5.65438003      0.94565817      1.95727050      3.93371565
    C      5.43361688      0.61636987      0.61708964      4.05086813
    C      6.57170560      0.62312098     -0.26286828      3.83250222
    C      7.84271284      0.96421626      0.29164141      3.88157520
    N      6.45158060      0.31365113     -1.59397641      5.24816435
    C      7.56041379      0.34829709     -2.32168714      3.91799275
    C      8.82757819      0.68840040     -1.76769238      3.92638309
    N      8.97793710      0.99284604     -0.48497769      5.26442448
    H      4.80973529      0.95038291      2.65553527      0.93050501
    H      7.47440824      0.10239710     -3.38699808      0.93591823
    H      9.72139148      0.70584115     -2.40254662      0.93700902
    H     -6.89855281     -2.51283316     -2.30115077      0.91468198
    H      8.89725643      1.54364476      2.11696167      0.92605934
