
                                 *****************
                                 * O   R   C   A *
                                 *****************

           --- An Ab Initio, DFT and Semiempirical electronic structure package ---

                  #######################################################
                  #                        -***-                        #
                  #  Department of molecular theory and spectroscopy    #
                  #              Directorship: Frank Neese              #
                  # Max Planck Institute for Chemical Energy Conversion #
                  #                  D-45470 Muelheim/Ruhr              #
                  #                       Germany                       #
                  #                                                     #
                  #                  All rights reserved                #
                  #                        -***-                        #
                  #######################################################


                         Program Version 4.0.0 -  RELEASE  -


 With contributions from (in alphabetic order):
   Daniel Aravena         : Magnetic Properties
   Michael Atanasov       : Ab Initio Ligand Field Theory
   Ute Becker             : Parallelization
   Martin Brehm           : Molecular dynamics
   Dmytro Bykov           : SCF Hessian
   Vijay G. Chilkuri      : MRCI spin determinant printing
   Dipayan Datta          : RHF DLPNO-CCSD density
   Achintya Kumar Dutta   : EOM-CC, STEOM-CC
   Dmitry Ganyushin       : Spin-Orbit,Spin-Spin,Magnetic field MRCI
   Yang Guo               : DLPNO-NEVPT2, CIM, IAO-localization
   Andreas Hansen         : Spin unrestricted coupled pair/coupled cluster methods
   Lee Huntington         : MR-EOM, pCC
   Robert Izsak           : Overlap fitted RIJCOSX, COSX-SCS-MP3, EOM
   Christian Kollmar      : KDIIS, OOCD, Brueckner-CCSD(T), CCSD density
   Simone Kossmann        : Meta GGA functionals, TD-DFT gradient, OOMP2, MP2 Hessian
   Martin Krupicka        : AUTO-CI
   Dagmar Lenk            : GEPOL surface
   Dimitrios Liakos       : Extrapolation schemes; parallel MDCI
   Dimitrios Manganas     : ROCIS; embedding schemes
   Dimitrios Pantazis     : SARC Basis sets
   Taras Petrenko         : DFT Hessian,TD-DFT gradient, ASA, ECA, R-Raman, ABS, FL, XAS/XES, NRVS
   Peter Pinski           : DLPNO-MP2
   Christoph Reimann      : Effective Core Potentials
   Marius Retegan         : Local ZFS, SOC
   Christoph Riplinger    : Optimizer, TS searches, QM/MM, DLPNO-CCSD(T), (RO)-DLPNO pert. Triples
   Tobias Risthaus        : Range-separated hybrids, TD-DFT gradient, RPA, STAB
   Michael Roemelt        : Restricted open shell CIS
   Masaaki Saitow         : Open-shell DLPNO
   Barbara Sandhoefer     : DKH picture change effects
   Kantharuban Sivalingam : CASSCF convergence, NEVPT2, FIC-MRCI
   Georgi Stoychev        : AutoAux
   Boris Wezisla          : Elementary symmetry handling
   Frank Wennmohs         : Technical directorship


 We gratefully acknowledge several colleagues who have allowed us to
 interface, adapt or use parts of their codes:
   Stefan Grimme, W. Hujo, H. Kruse,             : VdW corrections, initial TS optimization,
                  C. Bannwarth                     DFT functionals, gCP, sTDA/sTD-DF
   Ed Valeev                                     : LibInt (2-el integral package), F12 methods
   Garnet Chan, S. Sharma, J. Yang, R. Olivares  : DMRG
   Ulf Ekstrom                                   : XCFun DFT Library
   Mihaly Kallay                                 : mrcc  (arbitrary order and MRCC methods)
   Jiri Pittner, Ondrej Demel                    : Mk-CCSD
   Frank Weinhold                                : gennbo (NPA and NBO analysis)
   Christopher J. Cramer and Donald G. Truhlar   : smd solvation model


 Your calculation uses the libint2 library for the computation of 2-el integrals
 For citations please refer to: http://libint.valeyev.net

 This ORCA versions uses:
   CBLAS   interface :  Fast vector & matrix operations
   LAPACKE interface :  Fast linear algebra routines
   SCALAPACK package :  Parallel linear algebra routines


Your calculation utilizes the atom-pairwise dispersion correction
with the zero-damping scheme (D30)
Cite in your paper:
S.Grimme, J.Antony, S.Ehrlich and H.Krieg, J.Chem.Phys., 132, (2010), 154104 
   

XCFun DFT library Copyright 2009-2010 Ulf Ekstrom and contributors.
See http://admol.org/xcfun for more information. This is free soft-
ware; see the source code for copying conditions. There is ABSOLUTELY
NO WARRANTY; not even for MERCHANTABILITY or FITNESS FOR A PARTICULAR
PURPOSE. For details see the documentation. Scientific users of this 
library should cite U. Ekstrom, L. Visscher, R. Bast, A. J. Thorvald-
sen and K. Ruud; J.Chem.Theor.Comp. 2010, DOI: 10.1021/ct100117s
XCFun Version 0.99 
Your calculation utilizes the basis: def2-TZVP
   F. Weigend and R. Ahlrichs, Phys. Chem. Chem. Phys. 7, 3297 (2005).

Your calculation utilizes the auxiliary basis: def2/J
   F. Weigend, Phys. Chem. Chem. Phys. 8, 1057 (2006).

================================================================================
                                        WARNINGS
                       Please study these warnings very carefully!
================================================================================

Warning: TCutStore was < 0. Adjusted to Thresh (uncritical)
INFO   : Checking CIS options ...

WARNING: CIS/ROCIS methods need fully converged wavefunctions
  ===> : Setting SCFConvForced true
         You can overwrite this default with %scf ConvForced false 


INFO   : the flag for use of LIBINT has been found!

Your calculation utilizes the atom-pairwise dispersion correction
with the zero-damping scheme (D30)
Cite in your paper:
S.Grimme, J.Antony, S.Ehrlich and H.Krieg, J.Chem.Phys., 132, (2010), 154104 
   

XCFun DFT library Copyright 2009-2010 Ulf Ekstrom and contributors.
See http://admol.org/xcfun for more information. This is free soft-
ware; see the source code for copying conditions. There is ABSOLUTELY
NO WARRANTY; not even for MERCHANTABILITY or FITNESS FOR A PARTICULAR
PURPOSE. For details see the documentation. Scientific users of this 
library should cite U. Ekstrom, L. Visscher, R. Bast, A. J. Thorvald-
sen and K. Ruud; J.Chem.Theor.Comp. 2010, DOI: 10.1021/ct100117s
XCFun Version 0.99 
Your calculation utilizes the basis: def2-TZVP
   F. Weigend and R. Ahlrichs, Phys. Chem. Chem. Phys. 7, 3297 (2005).

Your calculation utilizes the auxiliary basis: def2/J
   F. Weigend, Phys. Chem. Chem. Phys. 8, 1057 (2006).

================================================================================
                                        WARNINGS
                       Please study these warnings very carefully!
================================================================================

INFO   : Checking CIS options ...

INFO   : the flag for use of LIBINT has been found!

================================================================================
                                       INPUT FILE
================================================================================
NAME = total.inp
|  1> # 
|  2> !wB97X-D3 def2-TZVP def2/J RIJCOSX Grid5 FinalGrid6 TightSCF
|  3> %pal 
|  4>  nprocs 24
|  5> end
|  6> %tddft
|  7>   Mode sTDDFT
|  8>   nroots 2
|  9>   Ethresh 10.0
| 10>   maxcore 5000
| 11>   triplets true
| 12> end
| 13> * xyz 0 1 
| 14> C -6.38370213 2.93682063 -1.25384431
| 15> C -5.16395518 2.33790835 -1.05616590
| 16> C -5.08286708 1.05275342 -0.42923230
| 17> C -6.29959125 0.40581572 -0.00159569
| 18> C -7.55079397 1.06627959 -0.22818713
| 19> C -7.58512432 2.29562465 -0.83848122
| 20> N -3.87224087 0.46892432 -0.24731225
| 21> C -3.84243638 -0.74800873 0.34418084
| 22> C -5.06266047 -1.37941607 0.80097798
| 23> N -6.27440678 -0.79858246 0.61899114
| 24> C -4.98988333 -2.64452164 1.46712729
| 25> C -3.77141552 -3.24393855 1.67314272
| 26> C -2.57315593 -2.63491789 1.22075044
| 27> C -2.57505341 -1.41886202 0.55534803
| 28> H -1.63260283 -3.15495470 1.38368449
| 29> H -3.71324154 -4.20378938 2.18004650
| 30> H -5.90839440 -3.11701706 1.80452165
| 31> H -8.53579758 2.79437043 -1.00955448
| 32> H -4.24711155 2.82755147 -1.37524365
| 33> H -6.44304178 3.91106548 -1.73240458
| 34> S 2.95980492 -1.43785009 1.90429944
| 35> C 2.42381758 -0.52036225 0.49487210
| 36> C 3.49735308 0.09788067 -0.11037175
| 37> C 4.75301740 -0.15119752 0.53927085
| 38> C 4.61549120 -0.96958196 1.64851200
| 39> C 1.03126974 -0.47989830 0.10312947
| 40> C -0.04111236 -1.09821604 0.71350882
| 41> C -1.30294324 -0.83984443 0.07885656
| 42> C -1.16583005 -0.02421755 -1.03068659
| 43> S 0.49339102 0.43324949 -1.30362797
| 44> H 0.06705967 -1.70002148 1.61065153
| 45> H 3.40777748 0.71744620 -0.99640520
| 46> H -1.95367291 0.29642719 -1.69935077
| 47> H 5.40667942 -1.30512170 2.30736457
| 48> N 7.62853912 -0.54948539 1.78768069
| 49> C 7.28895892 0.16987904 0.70128600
| 50> C 8.48217630 0.75236371 0.17493704
| 51> N 9.51216072 0.37247491 0.95338169
| 52> O 8.96732575 -0.40976149 1.91476580
| 53> C 8.41093923 1.57158538 -0.98644524
| 54> C 7.15423479 1.74328570 -1.52885338
| 55> N 5.99728762 1.18883577 -1.03302760
| 56> C 6.02069352 0.41248403 0.05712751
| 57> H 7.03121003 2.36240108 -2.42320202
| 58> H -8.46911786 0.57907748 0.08983876
| 59> H 9.29146522 2.03486199 -1.42146186
| 60> *
| 61> $new_job
| 62> # 
| 63> !wB97X-D3 def2-TZVP def2/J RIJCOSX Grid5 FinalGrid6 TightSCF
| 64> %pal 
| 65>  nprocs 24
| 66> end
| 67> %elprop
| 68>    dipole     true
| 69>    quadrupole true
| 70> end
| 71> %tddft
| 72>   Mode sTDDFT
| 73>   nroots 2
| 74>   Ethresh 10.0
| 75>   maxcore 5000
| 76> end
| 77> * xyz 0 1 
| 78> C -6.38370213 2.93682063 -1.25384431
| 79> C -5.16395518 2.33790835 -1.05616590
| 80> C -5.08286708 1.05275342 -0.42923230
| 81> C -6.29959125 0.40581572 -0.00159569
| 82> C -7.55079397 1.06627959 -0.22818713
| 83> C -7.58512432 2.29562465 -0.83848122
| 84> N -3.87224087 0.46892432 -0.24731225
| 85> C -3.84243638 -0.74800873 0.34418084
| 86> C -5.06266047 -1.37941607 0.80097798
| 87> N -6.27440678 -0.79858246 0.61899114
| 88> C -4.98988333 -2.64452164 1.46712729
| 89> C -3.77141552 -3.24393855 1.67314272
| 90> C -2.57315593 -2.63491789 1.22075044
| 91> C -2.57505341 -1.41886202 0.55534803
| 92> H -1.63260283 -3.15495470 1.38368449
| 93> H -3.71324154 -4.20378938 2.18004650
| 94> H -5.90839440 -3.11701706 1.80452165
| 95> H -8.53579758 2.79437043 -1.00955448
| 96> H -4.24711155 2.82755147 -1.37524365
| 97> H -6.44304178 3.91106548 -1.73240458
| 98> S 2.95980492 -1.43785009 1.90429944
| 99> C 2.42381758 -0.52036225 0.49487210
|100> C 3.49735308 0.09788067 -0.11037175
|101> C 4.75301740 -0.15119752 0.53927085
|102> C 4.61549120 -0.96958196 1.64851200
|103> C 1.03126974 -0.47989830 0.10312947
|104> C -0.04111236 -1.09821604 0.71350882
|105> C -1.30294324 -0.83984443 0.07885656
|106> C -1.16583005 -0.02421755 -1.03068659
|107> S 0.49339102 0.43324949 -1.30362797
|108> H 0.06705967 -1.70002148 1.61065153
|109> H 3.40777748 0.71744620 -0.99640520
|110> H -1.95367291 0.29642719 -1.69935077
|111> H 5.40667942 -1.30512170 2.30736457
|112> N 7.62853912 -0.54948539 1.78768069
|113> C 7.28895892 0.16987904 0.70128600
|114> C 8.48217630 0.75236371 0.17493704
|115> N 9.51216072 0.37247491 0.95338169
|116> O 8.96732575 -0.40976149 1.91476580
|117> C 8.41093923 1.57158538 -0.98644524
|118> C 7.15423479 1.74328570 -1.52885338
|119> N 5.99728762 1.18883577 -1.03302760
|120> C 6.02069352 0.41248403 0.05712751
|121> H 7.03121003 2.36240108 -2.42320202
|122> H -8.46911786 0.57907748 0.08983876
|123> H 9.29146522 2.03486199 -1.42146186
|124> *
|125> 
|126>                          ****END OF INPUT****
================================================================================


                 $$$$$$$$$$$$$$$$$$$$$$$$$$$$$$$$$$$$$$$$$$$$$$ 
                 $ THERE ARE  2 JOBS TO BE PROCESSED THIS RUN $
                 $$$$$$$$$$$$$$$$$$$$$$$$$$$$$$$$$$$$$$$$$$$$$$ 




                 $$$$$$$$$$$$$$$$  JOB NUMBER  1 $$$$$$$$$$$$$$


                       ****************************
                       * Single Point Calculation *
                       ****************************

---------------------------------
CARTESIAN COORDINATES (ANGSTROEM)
---------------------------------
  C     -6.383702    2.936821   -1.253844
  C     -5.163955    2.337908   -1.056166
  C     -5.082867    1.052753   -0.429232
  C     -6.299591    0.405816   -0.001596
  C     -7.550794    1.066280   -0.228187
  C     -7.585124    2.295625   -0.838481
  N     -3.872241    0.468924   -0.247312
  C     -3.842436   -0.748009    0.344181
  C     -5.062660   -1.379416    0.800978
  N     -6.274407   -0.798582    0.618991
  C     -4.989883   -2.644522    1.467127
  C     -3.771416   -3.243939    1.673143
  C     -2.573156   -2.634918    1.220750
  C     -2.575053   -1.418862    0.555348
  H     -1.632603   -3.154955    1.383684
  H     -3.713242   -4.203789    2.180046
  H     -5.908394   -3.117017    1.804522
  H     -8.535798    2.794370   -1.009554
  H     -4.247112    2.827551   -1.375244
  H     -6.443042    3.911065   -1.732405
  S      2.959805   -1.437850    1.904299
  C      2.423818   -0.520362    0.494872
  C      3.497353    0.097881   -0.110372
  C      4.753017   -0.151198    0.539271
  C      4.615491   -0.969582    1.648512
  C      1.031270   -0.479898    0.103129
  C     -0.041112   -1.098216    0.713509
  C     -1.302943   -0.839844    0.078857
  C     -1.165830   -0.024218   -1.030687
  S      0.493391    0.433249   -1.303628
  H      0.067060   -1.700021    1.610652
  H      3.407777    0.717446   -0.996405
  H     -1.953673    0.296427   -1.699351
  H      5.406679   -1.305122    2.307365
  N      7.628539   -0.549485    1.787681
  C      7.288959    0.169879    0.701286
  C      8.482176    0.752364    0.174937
  N      9.512161    0.372475    0.953382
  O      8.967326   -0.409761    1.914766
  C      8.410939    1.571585   -0.986445
  C      7.154235    1.743286   -1.528853
  N      5.997288    1.188836   -1.033028
  C      6.020694    0.412484    0.057128
  H      7.031210    2.362401   -2.423202
  H     -8.469118    0.579077    0.089839
  H      9.291465    2.034862   -1.421462

----------------------------
CARTESIAN COORDINATES (A.U.)
----------------------------
  NO LB      ZA    FRAG     MASS         X           Y           Z
   0 C     6.0000    0    12.011  -12.063449    5.549787   -2.369422
   1 C     6.0000    0    12.011   -9.758461    4.418007   -1.995864
   2 C     6.0000    0    12.011   -9.605227    1.989416   -0.811131
   3 C     6.0000    0    12.011  -11.904502    0.766881   -0.003015
   4 C     6.0000    0    12.011  -14.268933    2.014976   -0.431211
   5 C     6.0000    0    12.011  -14.333808    4.338102   -1.584500
   6 N     7.0000    0    14.007   -7.317475    0.886139   -0.467352
   7 C     6.0000    0    12.011   -7.261152   -1.413532    0.650408
   8 C     6.0000    0    12.011   -9.567042   -2.606719    1.513629
   9 N     7.0000    0    14.007  -11.856910   -1.509102    1.169724
  10 C     6.0000    0    12.011   -9.429513   -4.997422    2.772469
  11 C     6.0000    0    12.011   -7.126942   -6.130155    3.161782
  12 C     6.0000    0    12.011   -4.862560   -4.979273    2.306884
  13 C     6.0000    0    12.011   -4.866146   -2.681261    1.049456
  14 H     1.0000    0     1.008   -3.085172   -5.962000    2.614785
  15 H     1.0000    0     1.008   -7.017010   -7.944011    4.119691
  16 H     1.0000    0     1.008  -11.165247   -5.890309    3.410052
  17 H     1.0000    0     1.008  -16.130320    5.280595   -1.907781
  18 H     1.0000    0     1.008   -8.025878    5.343298   -2.598834
  19 H     1.0000    0     1.008  -12.175584    7.390843   -3.273770
  20 S    16.0000    0    32.060    5.593221   -2.717143    3.598604
  21 C     6.0000    0    12.011    4.580351   -0.983342    0.935173
  22 C     6.0000    0    12.011    6.609040    0.184968   -0.208572
  23 C     6.0000    0    12.011    8.981901   -0.285722    1.019074
  24 C     6.0000    0    12.011    8.722014   -1.832244    3.115236
  25 C     6.0000    0    12.011    1.948817   -0.906876    0.194886
  26 C     6.0000    0    12.011   -0.077691   -2.075328    1.348336
  27 C     6.0000    0    12.011   -2.462206   -1.587076    0.149017
  28 C     6.0000    0    12.011   -2.203100   -0.045765   -1.947715
  29 S    16.0000    0    32.060    0.932374    0.818723   -2.463500
  30 H     1.0000    0     1.008    0.126724   -3.212575    3.043690
  31 H     1.0000    0     1.008    6.439766    1.355777   -1.882933
  32 H     1.0000    0     1.008   -3.691907    0.560166   -3.211308
  33 H     1.0000    0     1.008   10.217143   -2.466323    4.360287
  34 N     7.0000    0    14.007   14.415850   -1.038377    3.378227
  35 C     6.0000    0    12.011   13.774136    0.321025    1.325238
  36 C     6.0000    0    12.011   16.028990    1.421761    0.330583
  37 N     7.0000    0    14.007   17.975379    0.703876    1.801630
  38 O     8.0000    0    15.999   16.945790   -0.774337    3.618383
  39 C     6.0000    0    12.011   15.894372    2.969866   -1.864111
  40 C     6.0000    0    12.011   13.519544    3.294333   -2.889114
  41 N     7.0000    0    14.007   11.333231    2.246574   -1.952139
  42 C     6.0000    0    12.011   11.377462    0.779482    0.107955
  43 H     1.0000    0     1.008   13.287061    4.464291   -4.579188
  44 H     1.0000    0     1.008  -16.004313    1.094298    0.169771
  45 H     1.0000    0     1.008   17.558325    3.845332   -2.686174

--------------------------------
INTERNAL COORDINATES (ANGSTROEM)
--------------------------------
 C      0   0   0     0.000000000000     0.00000000     0.00000000
 C      1   0   0     1.373155233376     0.00000000     0.00000000
 C      2   1   0     1.432216538403   120.31016309     0.00000000
 C      3   2   1     1.442851053905   118.96849570   359.53247021
 C      4   3   2     1.432851859332   118.87014520     0.49652464
 C      5   4   3     1.372926336613   120.32270107   359.79697075
 N      3   2   1     1.356306434010   119.70303615   179.60606659
 C      7   3   2     1.353395149734   117.73154933   180.26844940
 C      8   7   3     1.447855547330   120.76072747   358.15527839
 N      4   3   2     1.355115215429   121.23604850   181.26086523
 C      9   8   7     1.431622687221   119.29695936   182.30845736
 C     11   9   8     1.373465250160   120.03692782     0.31930420
 C     12  11   9     1.418235165386   120.95000474   359.27323992
 C     13  12  11     1.386201950159   121.91591516   359.95725159
 H     13  12  11     1.087026182906   118.54177042   181.43876699
 H     12  11   9     1.087036922086   120.18452330   179.90545645
 H     11   9   8     1.086622962114   119.06228538   180.26365431
 H      6   5   4     1.087103058884   120.17375675   179.97588021
 H      2   1   3     1.087273303903   120.68889295   179.75586468
 H      1   2   3     1.087057566938   120.18269559   180.17056647
 S     15  13  12     4.930486498319   130.93032745   207.29257613
 C     21  15  13     1.765092573189    79.27315933   313.30805296
 C     22  21  15     1.378775868607   110.31381409   192.47838011
 C     23  22  21     1.435537647361   113.86602020     0.00000000
 C     24  23  22     1.385309523599   112.21141815     0.00000000
 C     22  21  15     1.447165887553   121.52592029    12.45447669
 C     26  22  21     1.380175042125   127.98272939     0.17282337
 C     27  26  22     1.435881802134   113.99913631   179.20559388
 C     28  27  26     1.383883389583   111.92280699     0.54200023
 S     29  28  27     1.742638129026   112.00152475   359.87515504
 H     27  26  22     1.085696098268   122.43590131     0.93467111
 H     23  22  21     1.084868890050   123.38814256   180.01213377
 H     29  28  27     1.081952497551   126.72829697   178.09714360
 H     25  24  23     1.082890772692   126.70462298   180.00865765
 N     34  25  24     2.403688435427   116.51341980     0.00000000
 C     35  34  25     1.346496683190    96.27326060     0.00000000
 C     36  35  34     1.428320459285   107.72887697   180.01300989
 N     37  36  35     1.345793252666   108.12485913     0.00000000
 O     35  34  25     1.352044020763   158.04166472   180.01737428
 C     37  36  35     1.423027640293   119.58439922   179.99721318
 C     40  37  36     1.379490355074   115.98642728     0.00000000
 N     41  40  37     1.375421638321   125.05562877     0.00000000
 C     42  41  40     1.338546982446   120.84315462     0.00000000
 H     41  40  37     1.094668184975   119.60507263   179.99968627
 H      5   4   3     1.087117808539   118.99959454   179.77487637
 H     40  37  36     1.085905472919   122.13785077   179.99639450

---------------------------
INTERNAL COORDINATES (A.U.)
---------------------------
 C      0   0   0     0.000000000000     0.00000000     0.00000000
 C      1   0   0     2.594887330442     0.00000000     0.00000000
 C      2   1   0     2.706497022054   120.31016309     0.00000000
 C      3   2   1     2.726593343921   118.96849570   359.53247021
 C      4   3   2     2.707697604618   118.87014520     0.49652464
 C      5   4   3     2.594454778247   120.32270107   359.79697075
 N      3   2   1     2.563047713955   119.70303615   179.60606659
 C      7   3   2     2.557546183975   117.73154933   180.26844940
 C      8   7   3     2.736050465932   120.76072747   358.15527839
 N      4   3   2     2.560796637070   121.23604850   181.26086523
 C      9   8   7     2.705374805956   119.29695936   182.30845736
 C     11   9   8     2.595473177261   120.03692782     0.31930420
 C     12  11   9     2.680076056076   120.95000474   359.27323992
 C     13  12  11     2.619542052109   121.91591516   359.95725159
 H     13  12  11     2.054181786095   118.54177042   181.43876699
 H     12  11   9     2.054202080204   120.18452330   179.90545645
 H     11   9   8     2.053419809226   119.06228538   180.26365431
 H      6   5   4     2.054327060638   120.17375675   179.97588021
 H      2   1   3     2.054648777100   120.68889295   179.75586468
 H      1   2   3     2.054241093319   120.18269559   180.17056647
 S     15  13  12     9.317269188819   130.93032745   207.29257613
 C     21  15  13     3.335541564346    79.27315933   313.30805296
 C     22  21  15     2.605508791727   110.31381409   192.47838011
 C     23  22  21     2.712773008445   113.86602020     0.00000000
 C     24  23  22     2.617855610315   112.21141815     0.00000000
 C     22  21  15     2.734747197829   121.52592029    12.45447669
 C     26  22  21     2.608152846490   127.98272939     0.17282337
 C     27  26  22     2.713423366714   113.99913631   179.20559388
 C     28  27  26     2.615160607594   111.92280699     0.54200023
 S     29  28  27     3.293108814388   112.00152475   359.87515504
 H     27  26  22     2.051668290393   122.43590131     0.93467111
 H     23  22  21     2.050105093406   123.38814256   180.01213377
 H     29  28  27     2.044593910284   126.72829697   178.09714360
 H     25  24  23     2.046366993338   126.70462298   180.00865765
 N     34  25  24     4.542312854231   116.51341980     0.00000000
 C     35  34  25     2.544509971462    96.27326060     0.00000000
 C     36  35  34     2.699134499525   107.72887697   180.01300989
 N     37  36  35     2.543180680418   108.12485913     0.00000000
 O     35  34  25     2.554992920248   158.04166472   180.01737428
 C     37  36  35     2.689132521154   119.58439922   179.99721318
 C     40  37  36     2.606858975476   115.98642728     0.00000000
 N     41  40  37     2.599170215095   125.05562877     0.00000000
 C     42  41  40     2.529487214209   120.84315462     0.00000000
 H     41  40  37     2.068623077119   119.60507263   179.99968627
 H      5   4   3     2.054354933448   118.99959454   179.77487637
 H     40  37  36     2.052063951143   122.13785077   179.99639450

---------------------
BASIS SET INFORMATION
---------------------
There are 5 groups of distinct atoms

 Group   1 Type C   : 11s6p2d1f contracted to 5s3p2d1f pattern {62111/411/11/1}
 Group   2 Type N   : 11s6p2d1f contracted to 5s3p2d1f pattern {62111/411/11/1}
 Group   3 Type H   : 5s1p contracted to 3s1p pattern {311/1}
 Group   4 Type S   : 14s9p3d1f contracted to 5s5p2d1f pattern {73211/51111/21/1}
 Group   5 Type O   : 11s6p2d1f contracted to 5s3p2d1f pattern {62111/411/11/1}

Atom   0C    basis set group =>   1
Atom   1C    basis set group =>   1
Atom   2C    basis set group =>   1
Atom   3C    basis set group =>   1
Atom   4C    basis set group =>   1
Atom   5C    basis set group =>   1
Atom   6N    basis set group =>   2
Atom   7C    basis set group =>   1
Atom   8C    basis set group =>   1
Atom   9N    basis set group =>   2
Atom  10C    basis set group =>   1
Atom  11C    basis set group =>   1
Atom  12C    basis set group =>   1
Atom  13C    basis set group =>   1
Atom  14H    basis set group =>   3
Atom  15H    basis set group =>   3
Atom  16H    basis set group =>   3
Atom  17H    basis set group =>   3
Atom  18H    basis set group =>   3
Atom  19H    basis set group =>   3
Atom  20S    basis set group =>   4
Atom  21C    basis set group =>   1
Atom  22C    basis set group =>   1
Atom  23C    basis set group =>   1
Atom  24C    basis set group =>   1
Atom  25C    basis set group =>   1
Atom  26C    basis set group =>   1
Atom  27C    basis set group =>   1
Atom  28C    basis set group =>   1
Atom  29S    basis set group =>   4
Atom  30H    basis set group =>   3
Atom  31H    basis set group =>   3
Atom  32H    basis set group =>   3
Atom  33H    basis set group =>   3
Atom  34N    basis set group =>   2
Atom  35C    basis set group =>   1
Atom  36C    basis set group =>   1
Atom  37N    basis set group =>   2
Atom  38O    basis set group =>   5
Atom  39C    basis set group =>   1
Atom  40C    basis set group =>   1
Atom  41N    basis set group =>   2
Atom  42C    basis set group =>   1
Atom  43H    basis set group =>   3
Atom  44H    basis set group =>   3
Atom  45H    basis set group =>   3
-------------------------------
AUXILIARY BASIS SET INFORMATION
-------------------------------
There are 5 groups of distinct atoms

 Group   1 Type C   : 12s5p4d2f1g contracted to 6s4p3d1f1g pattern {711111/2111/211/2/1}
 Group   2 Type N   : 12s5p4d2f1g contracted to 6s4p3d1f1g pattern {711111/2111/211/2/1}
 Group   3 Type H   : 5s2p1d contracted to 3s1p1d pattern {311/2/1}
 Group   4 Type S   : 14s5p5d2f1g contracted to 8s4p3d1f1g pattern {71111111/2111/311/2/1}
 Group   5 Type O   : 12s5p4d2f1g contracted to 6s4p3d1f1g pattern {711111/2111/211/2/1}

Atom   0C    basis set group =>   1
Atom   1C    basis set group =>   1
Atom   2C    basis set group =>   1
Atom   3C    basis set group =>   1
Atom   4C    basis set group =>   1
Atom   5C    basis set group =>   1
Atom   6N    basis set group =>   2
Atom   7C    basis set group =>   1
Atom   8C    basis set group =>   1
Atom   9N    basis set group =>   2
Atom  10C    basis set group =>   1
Atom  11C    basis set group =>   1
Atom  12C    basis set group =>   1
Atom  13C    basis set group =>   1
Atom  14H    basis set group =>   3
Atom  15H    basis set group =>   3
Atom  16H    basis set group =>   3
Atom  17H    basis set group =>   3
Atom  18H    basis set group =>   3
Atom  19H    basis set group =>   3
Atom  20S    basis set group =>   4
Atom  21C    basis set group =>   1
Atom  22C    basis set group =>   1
Atom  23C    basis set group =>   1
Atom  24C    basis set group =>   1
Atom  25C    basis set group =>   1
Atom  26C    basis set group =>   1
Atom  27C    basis set group =>   1
Atom  28C    basis set group =>   1
Atom  29S    basis set group =>   4
Atom  30H    basis set group =>   3
Atom  31H    basis set group =>   3
Atom  32H    basis set group =>   3
Atom  33H    basis set group =>   3
Atom  34N    basis set group =>   2
Atom  35C    basis set group =>   1
Atom  36C    basis set group =>   1
Atom  37N    basis set group =>   2
Atom  38O    basis set group =>   5
Atom  39C    basis set group =>   1
Atom  40C    basis set group =>   1
Atom  41N    basis set group =>   2
Atom  42C    basis set group =>   1
Atom  43H    basis set group =>   3
Atom  44H    basis set group =>   3
Atom  45H    basis set group =>   3
-------------------------
ECP PARAMETER INFORMATION
-------------------------





           ************************************************************
           *        Program running with 24 parallel MPI-processes    *
           *              working on a common directory               *
           ************************************************************
------------------------------------------------------------------------------
                           ORCA GTO INTEGRAL CALCULATION
                           -- RI-GTO INTEGRALS CHOSEN --
------------------------------------------------------------------------------

                         BASIS SET STATISTICS AND STARTUP INFO

Gaussian basis set:
 # of primitive gaussian shells          ...  752
 # of primitive gaussian functions       ... 1656
 # of contracted shells                  ...  419
 # of contracted basis functions         ... 1113
 Highest angular momentum                ...    3
 Maximum contraction depth               ...    7
Auxiliary gaussian basis set:
 # of primitive gaussian shells          ...  902
 # of primitive gaussian functions       ... 2532
 # of contracted shells                  ...  564
 # of contracted aux-basis functions     ... 1764
 Highest angular momentum                ...    4
 Maximum contraction depth               ...    7
Ratio of auxiliary to basis functions    ...  1.58
Integral package used                  ... LIBINT
 One Electron integrals                  
   ECP integrals                         ... done
 Ordering auxiliary basis shells         ... done
 Integral threshhold             Thresh  ...  2.500e-11
 Primitive cut-off               TCut    ...  2.500e-12
 Pre-screening matrix                    ... done
 Shell pair data                         ... 
 Ordering of the shell pairs             ... done (   0.013 sec) 44099 of 87990 pairs
 Determination of significant pairs      ... done (   0.000 sec)
 Creation of shell pair data             ... done (   0.008 sec)
 Storage of shell pair data              ... done (   0.110 sec)
 Shell pair data done in (   0.132 sec)
 Computing two index integrals           ... done
 Cholesky decomposition of the V-matrix  ... done


Timings:
 Total evaluation time                   ...   5.500 sec (  0.092 min)
 One electron matrix time                ...   1.562 sec (  0.026 min) = 28.4%
 Schwartz matrix evaluation time         ...   2.760 sec (  0.046 min) = 50.2%
 Two index repulsion integral time       ...   0.429 sec (  0.007 min) =  7.8%
 Cholesky decomposition of V             ...   0.581 sec (  0.010 min) = 10.6%
 Three index repulsion integral time     ...   0.000 sec (  0.000 min) =  0.0%



           ************************************************************
           *        Program running with 24 parallel MPI-processes    *
           *              working on a common directory               *
           ************************************************************
-------------------------------------------------------------------------------
                                 ORCA SCF
-------------------------------------------------------------------------------

------------
SCF SETTINGS
------------
Hamiltonian:
 Density Functional     Method          .... DFT(GTOs)
 Exchange Functional    Exchange        .... WB97X-D3
 Correlation Functional Correlation     .... WB97X-D3
 Gradients option       PostSCFGGA      .... off
 Hybrid DFT is turned on
   Fraction HF Exchange ScalHFX         ....  0.195728
   Scaling of DF-GGA-X  ScalDFX         ....  0.000000
   Scaling of DF-GGA-C  ScalDFC         ....  1.000000
   Scaling of DF-LDA-C  ScalLDAC        ....  1.000000
   Perturbative correction              ....  0.000000
 Long-range corrected/Screened/Range-Separated Hybrid DFT is turned on
   Amount of maximum screened exact exchange              ....  0.804272
   Range separation parameter mu (erf(mu*r12)/r12)        ....  0.250000
 RI-approximation to the Coulomb term is turned on
   Number of auxiliary basis functions  .... 1764
   RIJ-COSX (HFX calculated with COS-X)).... on


General Settings:
 Integral files         IntName         .... total
 Hartree-Fock type      HFTyp           .... RHF
 Total Charge           Charge          ....    0
 Multiplicity           Mult            ....    1
 Number of Electrons    NEL             ....  238
 Basis Dimension        Dim             .... 1113
 Nuclear Repulsion      ENuc            ....   3111.3699096191 Eh

Convergence Acceleration:
 DIIS                   CNVDIIS         .... on
   Start iteration      DIISMaxIt       ....    12
   Startup error        DIISStart       ....  0.200000
   # of expansion vecs  DIISMaxEq       ....     5
   Bias factor          DIISBfac        ....   1.050
   Max. coefficient     DIISMaxC        ....  10.000
 Newton-Raphson         CNVNR           .... off
 SOSCF                  CNVSOSCF        .... on
   Start iteration      SOSCFMaxIt      ....   150
   Startup grad/error   SOSCFStart      ....  0.003300
 Level Shifting         CNVShift        .... on
   Level shift para.    LevelShift      ....    0.2500
   Turn off err/grad.   ShiftErr        ....    0.0010
 Zerner damping         CNVZerner       .... off
 Static damping         CNVDamp         .... on
   Fraction old density DampFac         ....    0.7000
   Max. Damping (<1)    DampMax         ....    0.9800
   Min. Damping (>=0)   DampMin         ....    0.0000
   Turn off err/grad.   DampErr         ....    0.1000
 Fernandez-Rico         CNVRico         .... off

SCF Procedure:
 Maximum # iterations   MaxIter         ....   125
 SCF integral mode      SCFMode         .... Direct
   Integral package                     .... LIBINT
 Reset frequeny         DirectResetFreq ....    20
 Integral Threshold     Thresh          ....  2.500e-11 Eh
 Primitive CutOff       TCut            ....  2.500e-12 Eh

Convergence Tolerance:
 Convergence Check Mode ConvCheckMode   .... Total+1el-Energy
 Convergence forced     ConvForced      .... 1
 Energy Change          TolE            ....  1.000e-08 Eh
 1-El. energy change                    ....  1.000e-05 Eh
 Orbital Gradient       TolG            ....  1.000e-05
 Orbital Rotation angle TolX            ....  1.000e-05
 DIIS Error             TolErr          ....  5.000e-07


Diagonalization of the overlap matrix:
Smallest eigenvalue                        ... 5.742e-06
Time for diagonalization                   ...    0.459 sec
Threshold for overlap eigenvalues          ... 1.000e-08
Number of eigenvalues below threshold      ... 0
Time for construction of square roots      ...    0.483 sec
Total time needed                          ...    0.949 sec

-------------------
DFT GRID GENERATION
-------------------

General Integration Accuracy     IntAcc      ...  5.010
Radial Grid Type                 RadialGrid  ... Gauss-Chebyshev
Angular Grid (max. acc.)         AngularGrid ... Lebedev-434
Angular grid pruning method      GridPruning ... 3 (G Style)
Weight generation scheme         WeightScheme... Becke
Basis function cutoff            BFCut       ...    1.0000e-11
Integration weight cutoff        WCut        ...    1.0000e-14
Grids for H and He will be reduced by one unit

# of grid points (after initial pruning)     ... 441718 (   0.0 sec)
# of grid points (after weights+screening)   ... 389170 (   1.2 sec)
nearest neighbour list constructed           ...    0.0 sec
Grid point re-assignment to atoms done       ...    0.2 sec
Grid point division into batches done        ...    4.5 sec
Reduced shell lists constructed in    5.4 sec

Total number of grid points                  ...   389170
Total number of batches                      ...     6108
Average number of points per batch           ...       63
Average number of grid points per atom       ...     8460
Average number of shells per batch           ...   120.98 (28.87%)
Average number of basis functions per batch  ...   310.96 (27.94%)
Average number of large shells per batch     ...    81.61 (67.46%)
Average number of large basis fcns per batch ...   212.90 (68.47%)
Maximum spatial batch extension              ...  10.46, 18.15, 14.63 au
Average spatial batch extension              ...   0.05,  0.06,  0.06 au

Time for grid setup =    7.630 sec

------------------------------
INITIAL GUESS: MODEL POTENTIAL
------------------------------
Loading Hartree-Fock densities                     ... done
Calculating cut-offs                               ... done
Setting up the integral package                    ... done
Initializing the effective Hamiltonian             ... done
Starting the Coulomb interaction                   ... done (   0.6 sec)
Reading the grid                                   ... done
Mapping shells                                     ... done
Starting the XC term evaluation                    ... done (   2.1 sec)
  promolecular density results
     # of electrons  =    237.993691162
     EX              =   -222.278930169
     EC              =     -8.232731970
     EX+EC           =   -230.511662139
Transforming the Hamiltonian                       ... done (   0.2 sec)
Diagonalizing the Hamiltonian                      ... done (   0.5 sec)
Back transforming the eigenvectors                 ... done (   0.1 sec)
Now organizing SCF variables                       ... done
                      ------------------
                      INITIAL GUESS DONE (  11.5 sec)
                      ------------------
--------------------
COSX GRID GENERATION
--------------------

General Integration Accuracy     IntAcc      ...  3.340
Radial Grid Type                 RadialGrid  ... Gauss-Chebyshev
Angular Grid (max. acc.)         AngularGrid ... Lebedev-50
Angular grid pruning method      GridPruning ... 3 (G Style)
Weight generation scheme         WeightScheme... Becke
Basis function cutoff            BFCut       ...    1.0000e-11
Integration weight cutoff        WCut        ...    1.0000e-14
Grids for H and He will be reduced by one unit

# of grid points (after initial pruning)     ...  23482 (   0.0 sec)
# of grid points (after weights+screening)   ...  21513 (   0.1 sec)
nearest neighbour list constructed           ...    0.0 sec
Grid point re-assignment to atoms done       ...    0.0 sec
Grid point division into batches done        ...    0.0 sec
Reduced shell lists constructed in    0.1 sec

Total number of grid points                  ...    21513
Total number of batches                      ...      359
Average number of points per batch           ...       59
Average number of grid points per atom       ...      468
Average number of shells per batch           ...   131.75 (31.44%)
Average number of basis functions per batch  ...   339.25 (30.48%)
Average number of large shells per batch     ...    92.81 (70.45%)
Average number of large basis fcns per batch ...   245.19 (72.27%)
Maximum spatial batch extension              ...   3.94, 12.31, 21.48 au
Average spatial batch extension              ...   0.11,  0.19,  0.29 au

Overlap Fitting                  UseSFitting ... on
Constructing numerical overlap ... done (      0.1 sec)
Inverting numerical overlap    ... done (      0.2 sec)
Obtaining analytic overlap     ... done (      0.0 sec)
Final contraction and storage  ... done (      0.5 sec)


General Integration Accuracy     IntAcc      ...  3.670
Radial Grid Type                 RadialGrid  ... Gauss-Chebyshev
Angular Grid (max. acc.)         AngularGrid ... Lebedev-50
Angular grid pruning method      GridPruning ... 3 (G Style)
Weight generation scheme         WeightScheme... Becke
Basis function cutoff            BFCut       ...    1.0000e-11
Integration weight cutoff        WCut        ...    1.0000e-14
Grids for H and He will be reduced by one unit

# of grid points (after initial pruning)     ...  29318 (   0.0 sec)
# of grid points (after weights+screening)   ...  26768 (   0.1 sec)
nearest neighbour list constructed           ...    0.0 sec
Grid point re-assignment to atoms done       ...    0.0 sec
Grid point division into batches done        ...    0.0 sec
Reduced shell lists constructed in    0.1 sec

Total number of grid points                  ...    26768
Total number of batches                      ...      440
Average number of points per batch           ...       60
Average number of grid points per atom       ...      582
Average number of shells per batch           ...   132.75 (31.68%)
Average number of basis functions per batch  ...   343.65 (30.88%)
Average number of large shells per batch     ...    93.65 (70.55%)
Average number of large basis fcns per batch ...   248.05 (72.18%)
Maximum spatial batch extension              ...   4.51, 10.81, 15.73 au
Average spatial batch extension              ...   0.12,  0.17,  0.27 au

Overlap Fitting                  UseSFitting ... on
Constructing numerical overlap ... done (      0.1 sec)
Inverting numerical overlap    ... done (      0.2 sec)
Obtaining analytic overlap     ... done (      0.0 sec)
Final contraction and storage  ... done (      0.5 sec)


General Integration Accuracy     IntAcc      ...  4.010
Radial Grid Type                 RadialGrid  ... Gauss-Chebyshev
Angular Grid (max. acc.)         AngularGrid ... Lebedev-110
Angular grid pruning method      GridPruning ... 3 (G Style)
Weight generation scheme         WeightScheme... Becke
Basis function cutoff            BFCut       ...    1.0000e-11
Integration weight cutoff        WCut        ...    1.0000e-14
Grids for H and He will be reduced by one unit

# of grid points (after initial pruning)     ...  57410 (   0.0 sec)
# of grid points (after weights+screening)   ...  51957 (   0.2 sec)
nearest neighbour list constructed           ...    0.0 sec
Grid point re-assignment to atoms done       ...    0.0 sec
Grid point division into batches done        ...    0.1 sec
Reduced shell lists constructed in    0.2 sec

Total number of grid points                  ...    51957
Total number of batches                      ...      836
Average number of points per batch           ...       62
Average number of grid points per atom       ...     1130
Average number of shells per batch           ...   130.28 (31.09%)
Average number of basis functions per batch  ...   337.56 (30.33%)
Average number of large shells per batch     ...    90.58 (69.53%)
Average number of large basis fcns per batch ...   238.69 (70.71%)
Maximum spatial batch extension              ...   4.67,  9.27, 16.15 au
Average spatial batch extension              ...   0.08,  0.12,  0.16 au

Overlap Fitting                  UseSFitting ... on
Constructing numerical overlap ... done (      0.2 sec)
Inverting numerical overlap    ... done (      0.2 sec)
Obtaining analytic overlap     ... done (      0.0 sec)
Final contraction and storage  ... done (      0.5 sec)

Time for X-Grid setup             =    3.725 sec
--------------
SCF ITERATIONS
--------------
ITER       Energy         Delta-E        Max-DP      RMS-DP      [F,P]     Damp
               ***  Starting incremental Fock matrix formation  ***
  0  -2105.2182408826   0.000000000000 0.06895570  0.00059506  0.1645054 0.7000
  1  -2105.4633556609  -0.245114778320 0.06147194  0.00053283  0.0855345 0.7000
                               ***Turning on DIIS***
  2  -2105.5868876503  -0.123531989366 0.10239451  0.00117253  0.0435307 0.0000
  3  -2105.7885070478  -0.201619397509 0.05507571  0.00035257  0.0402210 0.0000
  4  -2105.8220796456  -0.033572597773 0.01666259  0.00014711  0.0132318 0.0000
  5  -2105.8235578647  -0.001478219135 0.00711981  0.00006402  0.0080516 0.0000
                      *** Initiating the SOSCF procedure ***
                           *** Shutting down DIIS ***
                      *** Re-Reading the Fockian *** 
                      *** Removing any level shift *** 
ITER      Energy       Delta-E        Grad      Rot      Max-DP    RMS-DP
  6  -2105.82406659  -0.0005087284  0.001690  0.001690  0.003386  0.000038
               *** Restarting incremental Fock matrix formation ***
  7  -2105.82427176  -0.0002051658  0.001069  0.004431  0.014131  0.000100
  8  -2105.82437189  -0.0001001289  0.000604  0.005836  0.010792  0.000082
  9  -2105.82439988  -0.0000279882  0.000661  0.001569  0.009878  0.000067
 10  -2105.82441560  -0.0000157234  0.000140  0.000305  0.001363  0.000010
 11  -2105.82441583  -0.0000002347  0.000090  0.000195  0.000870  0.000006
 12  -2105.82441651  -0.0000006777  0.000014  0.000068  0.000390  0.000003
 13  -2105.82441652  -0.0000000096  0.000016  0.000033  0.000185  0.000002
 14  -2105.82441654  -0.0000000218  0.000004  0.000021  0.000240  0.000002
 15  -2105.82441661  -0.0000000716  0.000004  0.000008  0.000139  0.000001
                  ***Gradient check signals convergence***
              ***Rediagonalizing the Fockian in SOSCF/NRSCF***

               *****************************************************
               *                     SUCCESS                       *
               *           SCF CONVERGED AFTER  16 CYCLES          *
               *****************************************************

Old exchange energy                            =    -69.617502705 Eh
New exchange energy                            =    -69.618113846 Eh
Exchange energy change after final integration =     -0.000611141 Eh
Total energy after final integration           =  -2105.825027696 Eh
Final COS-X integration done in                =    45.406 sec

----------------
TOTAL SCF ENERGY
----------------

Total Energy       :        -2105.82502770 Eh          -57302.41220 eV

Components:
Nuclear Repulsion  :         3111.36990962 Eh           84664.67951 eV
Electronic Energy  :        -5217.19493732 Eh         -141967.09171 eV
One Electron Energy:        -9063.09619439 Eh         -246619.38534 eV
Two Electron Energy:         3845.90125707 Eh          104652.29362 eV

Virial components:
Potential Energy   :        -4203.16909657 Eh         -114374.04578 eV
Kinetic Energy     :         2097.34406888 Eh           57071.63358 eV
Virial Ratio       :            2.00404367


DFT components:
N(Alpha)           :      118.999986475590 electrons
N(Beta)            :      118.999986475590 electrons
N(Total)           :      237.999972951181 electrons
E(XC)              :     -164.984502202749 Eh       

---------------
SCF CONVERGENCE
---------------

  Last Energy change         ...    5.9837e-08  Tolerance :   1.0000e-08
  Last MAX-Density change    ...    1.6314e-14  Tolerance :   1.0000e-07
  Last RMS-Density change    ...    1.1752e-16  Tolerance :   5.0000e-09
  Last Orbital Gradient      ...    1.0558e-06  Tolerance :   1.0000e-05
  Last Orbital Rotation      ...    5.4344e-06  Tolerance :   1.0000e-05

             **** THE GBW FILE WAS UPDATED (total.gbw) ****
             **** DENSITY FILE WAS UPDATED (total.scfp.tmp) ****
             **** ENERGY FILE WAS UPDATED (total.en.tmp) ****
----------------
ORBITAL ENERGIES
----------------

  NO   OCC          E(Eh)            E(eV) 
   0   2.0000     -88.995391     -2421.6877 
   1   2.0000     -88.985637     -2421.4223 
   2   2.0000     -19.392810      -527.7052 
   3   2.0000     -14.522488      -395.1770 
   4   2.0000     -14.514030      -394.9468 
   5   2.0000     -14.450986      -393.2313 
   6   2.0000     -14.447710      -393.1422 
   7   2.0000     -14.447585      -393.1388 
   8   2.0000     -10.376247      -282.3520 
   9   2.0000     -10.355544      -281.7887 
  10   2.0000     -10.355120      -281.7771 
  11   2.0000     -10.344581      -281.4904 
  12   2.0000     -10.343230      -281.4536 
  13   2.0000     -10.340394      -281.3764 
  14   2.0000     -10.340205      -281.3713 
  15   2.0000     -10.339346      -281.3479 
  16   2.0000     -10.338056      -281.3128 
  17   2.0000     -10.332831      -281.1706 
  18   2.0000     -10.330711      -281.1129 
  19   2.0000     -10.319462      -280.8068 
  20   2.0000     -10.317135      -280.7435 
  21   2.0000     -10.315385      -280.6959 
  22   2.0000     -10.315057      -280.6870 
  23   2.0000     -10.304721      -280.4057 
  24   2.0000     -10.304133      -280.3897 
  25   2.0000     -10.303599      -280.3752 
  26   2.0000     -10.303128      -280.3624 
  27   2.0000     -10.302623      -280.3486 
  28   2.0000     -10.300379      -280.2876 
  29   2.0000     -10.299794      -280.2716 
  30   2.0000     -10.297503      -280.2093 
  31   2.0000     -10.297351      -280.2052 
  32   2.0000     -10.296256      -280.1754 
  33   2.0000      -8.091678      -220.1857 
  34   2.0000      -8.081981      -219.9219 
  35   2.0000      -6.044964      -164.4918 
  36   2.0000      -6.040759      -164.3774 
  37   2.0000      -6.038844      -164.3253 
  38   2.0000      -6.035311      -164.2292 
  39   2.0000      -6.031076      -164.1139 
  40   2.0000      -6.029090      -164.0599 
  41   2.0000      -1.338073       -36.4108 
  42   2.0000      -1.102811       -30.0090 
  43   2.0000      -1.089322       -29.6420 
  44   2.0000      -1.045760       -28.4566 
  45   2.0000      -1.032983       -28.1089 
  46   2.0000      -1.021157       -27.7871 
  47   2.0000      -1.005045       -27.3487 
  48   2.0000      -1.002647       -27.2834 
  49   2.0000      -0.989624       -26.9290 
  50   2.0000      -0.963435       -26.2164 
  51   2.0000      -0.928398       -25.2630 
  52   2.0000      -0.908341       -24.7172 
  53   2.0000      -0.884979       -24.0815 
  54   2.0000      -0.882342       -24.0097 
  55   2.0000      -0.873391       -23.7662 
  56   2.0000      -0.864792       -23.5322 
  57   2.0000      -0.846987       -23.0477 
  58   2.0000      -0.830327       -22.5943 
  59   2.0000      -0.813286       -22.1306 
  60   2.0000      -0.802314       -21.8321 
  61   2.0000      -0.784981       -21.3604 
  62   2.0000      -0.764886       -20.8136 
  63   2.0000      -0.741188       -20.1687 
  64   2.0000      -0.733813       -19.9681 
  65   2.0000      -0.723104       -19.6767 
  66   2.0000      -0.714787       -19.4503 
  67   2.0000      -0.687826       -18.7167 
  68   2.0000      -0.678825       -18.4718 
  69   2.0000      -0.670977       -18.2582 
  70   2.0000      -0.664135       -18.0720 
  71   2.0000      -0.654175       -17.8010 
  72   2.0000      -0.645051       -17.5527 
  73   2.0000      -0.636160       -17.3108 
  74   2.0000      -0.633333       -17.2339 
  75   2.0000      -0.625440       -17.0191 
  76   2.0000      -0.604240       -16.4422 
  77   2.0000      -0.597431       -16.2569 
  78   2.0000      -0.589057       -16.0291 
  79   2.0000      -0.587237       -15.9795 
  80   2.0000      -0.575715       -15.6660 
  81   2.0000      -0.570081       -15.5127 
  82   2.0000      -0.562318       -15.3014 
  83   2.0000      -0.555528       -15.1167 
  84   2.0000      -0.544766       -14.8238 
  85   2.0000      -0.539422       -14.6784 
  86   2.0000      -0.538558       -14.6549 
  87   2.0000      -0.530268       -14.4293 
  88   2.0000      -0.521647       -14.1947 
  89   2.0000      -0.515239       -14.0204 
  90   2.0000      -0.508329       -13.8323 
  91   2.0000      -0.503740       -13.7075 
  92   2.0000      -0.498772       -13.5723 
  93   2.0000      -0.494790       -13.4639 
  94   2.0000      -0.489182       -13.3113 
  95   2.0000      -0.486348       -13.2342 
  96   2.0000      -0.481789       -13.1102 
  97   2.0000      -0.478868       -13.0307 
  98   2.0000      -0.466538       -12.6951 
  99   2.0000      -0.458321       -12.4715 
 100   2.0000      -0.455326       -12.3901 
 101   2.0000      -0.452080       -12.3017 
 102   2.0000      -0.447917       -12.1884 
 103   2.0000      -0.446551       -12.1513 
 104   2.0000      -0.434482       -11.8229 
 105   2.0000      -0.432371       -11.7654 
 106   2.0000      -0.430634       -11.7181 
 107   2.0000      -0.416157       -11.3242 
 108   2.0000      -0.414820       -11.2878 
 109   2.0000      -0.390504       -10.6262 
 110   2.0000      -0.383951       -10.4478 
 111   2.0000      -0.377175       -10.2635 
 112   2.0000      -0.365206        -9.9378 
 113   2.0000      -0.351188        -9.5563 
 114   2.0000      -0.342476        -9.3192 
 115   2.0000      -0.340575        -9.2675 
 116   2.0000      -0.328706        -8.9445 
 117   2.0000      -0.307201        -8.3594 
 118   2.0000      -0.285409        -7.7664 
 119   0.0000      -0.048274        -1.3136 
 120   0.0000      -0.044076        -1.1994 
 121   0.0000       0.005496         0.1496 
 122   0.0000       0.028633         0.7791 
 123   0.0000       0.037519         1.0209 
 124   0.0000       0.046194         1.2570 
 125   0.0000       0.057286         1.5588 
 126   0.0000       0.071822         1.9544 
 127   0.0000       0.084458         2.2982 
 128   0.0000       0.093161         2.5351 
 129   0.0000       0.106674         2.9027 
 130   0.0000       0.113664         3.0929 
 131   0.0000       0.124183         3.3792 
 132   0.0000       0.127674         3.4742 
 133   0.0000       0.131790         3.5862 
 134   0.0000       0.136356         3.7104 
 135   0.0000       0.140252         3.8165 
 136   0.0000       0.143124         3.8946 
 137   0.0000       0.145447         3.9578 
 138   0.0000       0.149136         4.0582 
 139   0.0000       0.150170         4.0863 
 140   0.0000       0.155068         4.2196 
 141   0.0000       0.159528         4.3410 
 142   0.0000       0.169494         4.6122 
 143   0.0000       0.171715         4.6726 
 144   0.0000       0.175203         4.7675 
 145   0.0000       0.179771         4.8918 
 146   0.0000       0.182888         4.9766 
 147   0.0000       0.188050         5.1171 
 148   0.0000       0.193339         5.2610 
 149   0.0000       0.196531         5.3479 
 150   0.0000       0.203369         5.5340 
 151   0.0000       0.204475         5.5641 
 152   0.0000       0.209128         5.6907 
 153   0.0000       0.215528         5.8648 
 154   0.0000       0.218908         5.9568 
 155   0.0000       0.229521         6.2456 
 156   0.0000       0.230561         6.2739 
 157   0.0000       0.234376         6.3777 
 158   0.0000       0.235988         6.4216 
 159   0.0000       0.245646         6.6844 
 160   0.0000       0.251480         6.8431 
 161   0.0000       0.255383         6.9493 
 162   0.0000       0.255874         6.9627 
 163   0.0000       0.262249         7.1362 
 164   0.0000       0.265541         7.2257 
 165   0.0000       0.266972         7.2647 
 166   0.0000       0.270427         7.3587 
 167   0.0000       0.273962         7.4549 
 168   0.0000       0.276902         7.5349 
 169   0.0000       0.280110         7.6222 
 170   0.0000       0.282357         7.6833 
 171   0.0000       0.285673         7.7736 
 172   0.0000       0.286978         7.8091 
 173   0.0000       0.290348         7.9008 
 174   0.0000       0.294862         8.0236 
 175   0.0000       0.298395         8.1198 
 176   0.0000       0.300537         8.1780 
 177   0.0000       0.303080         8.2472 
 178   0.0000       0.304098         8.2749 
 179   0.0000       0.313313         8.5257 
 180   0.0000       0.318318         8.6619 
 181   0.0000       0.319219         8.6864 
 182   0.0000       0.320963         8.7338 
 183   0.0000       0.323685         8.8079 
 184   0.0000       0.331799         9.0287 
 185   0.0000       0.333074         9.0634 
 186   0.0000       0.333475         9.0743 
 187   0.0000       0.337638         9.1876 
 188   0.0000       0.338940         9.2230 
 189   0.0000       0.342524         9.3206 
 190   0.0000       0.342897         9.3307 
 191   0.0000       0.349753         9.5173 
 192   0.0000       0.352915         9.6033 
 193   0.0000       0.355192         9.6653 
 194   0.0000       0.357915         9.7394 
 195   0.0000       0.361983         9.8501 
 196   0.0000       0.363749         9.8981 
 197   0.0000       0.368036        10.0148 
 198   0.0000       0.369209        10.0467 
 199   0.0000       0.375066        10.2061 
 200   0.0000       0.376591        10.2476 
 201   0.0000       0.378214        10.2917 
 202   0.0000       0.382973        10.4212 
 203   0.0000       0.388899        10.5825 
 204   0.0000       0.393366        10.7040 
 205   0.0000       0.396500        10.7893 
 206   0.0000       0.399162        10.8617 
 207   0.0000       0.404086        10.9957 
 208   0.0000       0.407963        11.1012 
 209   0.0000       0.410447        11.1688 
 210   0.0000       0.411232        11.1902 
 211   0.0000       0.416062        11.3216 
 212   0.0000       0.417280        11.3548 
 213   0.0000       0.419835        11.4243 
 214   0.0000       0.422144        11.4871 
 215   0.0000       0.425853        11.5880 
 216   0.0000       0.429915        11.6986 
 217   0.0000       0.431181        11.7330 
 218   0.0000       0.434709        11.8290 
 219   0.0000       0.437761        11.9121 
 220   0.0000       0.441837        12.0230 
 221   0.0000       0.445217        12.1150 
 222   0.0000       0.448353        12.2003 
 223   0.0000       0.452942        12.3252 
 224   0.0000       0.455324        12.3900 
 225   0.0000       0.459231        12.4963 
 226   0.0000       0.463449        12.6111 
 227   0.0000       0.464674        12.6444 
 228   0.0000       0.466017        12.6810 
 229   0.0000       0.468037        12.7359 
 230   0.0000       0.470255        12.7963 
 231   0.0000       0.479708        13.0535 
 232   0.0000       0.481185        13.0937 
 233   0.0000       0.482881        13.1399 
 234   0.0000       0.486227        13.2309 
 235   0.0000       0.488316        13.2878 
 236   0.0000       0.490200        13.3390 
 237   0.0000       0.490732        13.3535 
 238   0.0000       0.496446        13.5090 
 239   0.0000       0.498484        13.5644 
 240   0.0000       0.500927        13.6309 
 241   0.0000       0.502854        13.6834 
 242   0.0000       0.506767        13.7898 
 243   0.0000       0.508804        13.8453 
 244   0.0000       0.513575        13.9751 
 245   0.0000       0.516084        14.0434 
 246   0.0000       0.517304        14.0765 
 247   0.0000       0.520877        14.1738 
 248   0.0000       0.525441        14.2980 
 249   0.0000       0.528545        14.3824 
 250   0.0000       0.533127        14.5071 
 251   0.0000       0.536447        14.5975 
 252   0.0000       0.536596        14.6015 
 253   0.0000       0.540325        14.7030 
 254   0.0000       0.544326        14.8119 
 255   0.0000       0.546620        14.8743 
 256   0.0000       0.551286        15.0013 
 257   0.0000       0.556473        15.1424 
 258   0.0000       0.562617        15.3096 
 259   0.0000       0.563513        15.3340 
 260   0.0000       0.565079        15.3766 
 261   0.0000       0.574060        15.6210 
 262   0.0000       0.576144        15.6777 
 263   0.0000       0.580162        15.7870 
 264   0.0000       0.582921        15.8621 
 265   0.0000       0.590100        16.0574 
 266   0.0000       0.593544        16.1511 
 267   0.0000       0.597519        16.2593 
 268   0.0000       0.597866        16.2688 
 269   0.0000       0.602675        16.3996 
 270   0.0000       0.603557        16.4236 
 271   0.0000       0.609887        16.5959 
 272   0.0000       0.617204        16.7950 
 273   0.0000       0.619643        16.8613 
 274   0.0000       0.628314        17.0973 
 275   0.0000       0.630090        17.1456 
 276   0.0000       0.635731        17.2991 
 277   0.0000       0.639929        17.4134 
 278   0.0000       0.645148        17.5554 
 279   0.0000       0.650432        17.6992 
 280   0.0000       0.652515        17.7558 
 281   0.0000       0.655992        17.8505 
 282   0.0000       0.660688        17.9782 
 283   0.0000       0.667391        18.1606 
 284   0.0000       0.671499        18.2724 
 285   0.0000       0.675918        18.3927 
 286   0.0000       0.678299        18.4575 
 287   0.0000       0.681279        18.5385 
 288   0.0000       0.685747        18.6601 
 289   0.0000       0.693055        18.8590 
 290   0.0000       0.696549        18.9541 
 291   0.0000       0.699646        19.0383 
 292   0.0000       0.701124        19.0786 
 293   0.0000       0.704343        19.1661 
 294   0.0000       0.707337        19.2476 
 295   0.0000       0.711206        19.3529 
 296   0.0000       0.716176        19.4881 
 297   0.0000       0.721153        19.6236 
 298   0.0000       0.724075        19.7031 
 299   0.0000       0.727170        19.7873 
 300   0.0000       0.729345        19.8465 
 301   0.0000       0.732705        19.9379 
 302   0.0000       0.736659        20.0455 
 303   0.0000       0.742820        20.2132 
 304   0.0000       0.743934        20.2435 
 305   0.0000       0.745678        20.2909 
 306   0.0000       0.751613        20.4524 
 307   0.0000       0.755726        20.5643 
 308   0.0000       0.757698        20.6180 
 309   0.0000       0.759635        20.6707 
 310   0.0000       0.763099        20.7650 
 311   0.0000       0.766623        20.8609 
 312   0.0000       0.770545        20.9676 
 313   0.0000       0.772053        21.0086 
 314   0.0000       0.777112        21.1463 
 315   0.0000       0.779716        21.2172 
 316   0.0000       0.784883        21.3578 
 317   0.0000       0.788365        21.4525 
 318   0.0000       0.794082        21.6081 
 319   0.0000       0.796424        21.6718 
 320   0.0000       0.800684        21.7877 
 321   0.0000       0.801844        21.8193 
 322   0.0000       0.805664        21.9232 
 323   0.0000       0.811249        22.0752 
 324   0.0000       0.821094        22.3431 
 325   0.0000       0.825354        22.4590 
 326   0.0000       0.827560        22.5191 
 327   0.0000       0.830034        22.5864 
 328   0.0000       0.834795        22.7159 
 329   0.0000       0.835098        22.7242 
 330   0.0000       0.838683        22.8217 
 331   0.0000       0.843102        22.9420 
 332   0.0000       0.849701        23.1215 
 333   0.0000       0.859053        23.3760 
 334   0.0000       0.862622        23.4731 
 335   0.0000       0.866303        23.5733 
 336   0.0000       0.868058        23.6211 
 337   0.0000       0.873048        23.7568 
 338   0.0000       0.877640        23.8818 
 339   0.0000       0.882327        24.0093 
 340   0.0000       0.884560        24.0701 
 341   0.0000       0.891080        24.2475 
 342   0.0000       0.894391        24.3376 
 343   0.0000       0.897963        24.4348 
 344   0.0000       0.903944        24.5976 
 345   0.0000       0.906961        24.6797 
 346   0.0000       0.910154        24.7665 
 347   0.0000       0.912696        24.8357 
 348   0.0000       0.917568        24.9683 
 349   0.0000       0.920486        25.0477 
 350   0.0000       0.933276        25.3957 
 351   0.0000       0.939405        25.5625 
 352   0.0000       0.945819        25.7370 
 353   0.0000       0.947468        25.7819 
 354   0.0000       0.954302        25.9679 
 355   0.0000       0.961183        26.1551 
 356   0.0000       0.963984        26.2313 
 357   0.0000       0.970409        26.4062 
 358   0.0000       0.971617        26.4390 
 359   0.0000       0.975293        26.5391 
 360   0.0000       0.979730        26.6598 
 361   0.0000       0.983708        26.7680 
 362   0.0000       0.988604        26.9013 
 363   0.0000       0.990878        26.9632 
 364   0.0000       0.999272        27.1916 
 365   0.0000       1.003408        27.3041 
 366   0.0000       1.005791        27.3690 
 367   0.0000       1.013249        27.5719 
 368   0.0000       1.019738        27.7485 
 369   0.0000       1.028494        27.9867 
 370   0.0000       1.032863        28.1056 
 371   0.0000       1.037766        28.2390 
 372   0.0000       1.039352        28.2822 
 373   0.0000       1.044780        28.4299 
 374   0.0000       1.066063        29.0091 
 375   0.0000       1.070046        29.1174 
 376   0.0000       1.072281        29.1782 
 377   0.0000       1.076643        29.2969 
 378   0.0000       1.086499        29.5651 
 379   0.0000       1.087786        29.6002 
 380   0.0000       1.088270        29.6133 
 381   0.0000       1.096136        29.8274 
 382   0.0000       1.105881        30.0926 
 383   0.0000       1.110040        30.2057 
 384   0.0000       1.111217        30.2377 
 385   0.0000       1.123428        30.5700 
 386   0.0000       1.129719        30.7412 
 387   0.0000       1.142220        31.0814 
 388   0.0000       1.147033        31.2124 
 389   0.0000       1.153066        31.3765 
 390   0.0000       1.165891        31.7255 
 391   0.0000       1.174026        31.9469 
 392   0.0000       1.183076        32.1931 
 393   0.0000       1.188735        32.3471 
 394   0.0000       1.192842        32.4589 
 395   0.0000       1.198010        32.5995 
 396   0.0000       1.198765        32.6201 
 397   0.0000       1.210794        32.9474 
 398   0.0000       1.212403        32.9912 
 399   0.0000       1.217812        33.1384 
 400   0.0000       1.220786        33.2193 
 401   0.0000       1.225018        33.3344 
 402   0.0000       1.230083        33.4723 
 403   0.0000       1.237361        33.6703 
 404   0.0000       1.238028        33.6885 
 405   0.0000       1.252819        34.0909 
 406   0.0000       1.256488        34.1908 
 407   0.0000       1.258826        34.2544 
 408   0.0000       1.267233        34.4832 
 409   0.0000       1.273238        34.6466 
 410   0.0000       1.280430        34.8423 
 411   0.0000       1.286774        35.0149 
 412   0.0000       1.290787        35.1241 
 413   0.0000       1.301065        35.4038 
 414   0.0000       1.304467        35.4963 
 415   0.0000       1.307309        35.5737 
 416   0.0000       1.312234        35.7077 
 417   0.0000       1.313204        35.7341 
 418   0.0000       1.323343        36.0100 
 419   0.0000       1.331985        36.2452 
 420   0.0000       1.334973        36.3265 
 421   0.0000       1.342259        36.5247 
 422   0.0000       1.344431        36.5838 
 423   0.0000       1.350204        36.7409 
 424   0.0000       1.358892        36.9773 
 425   0.0000       1.370549        37.2945 
 426   0.0000       1.376304        37.4511 
 427   0.0000       1.379076        37.5266 
 428   0.0000       1.393287        37.9133 
 429   0.0000       1.395519        37.9740 
 430   0.0000       1.399027        38.0695 
 431   0.0000       1.408826        38.3361 
 432   0.0000       1.413509        38.4635 
 433   0.0000       1.419385        38.6234 
 434   0.0000       1.423978        38.7484 
 435   0.0000       1.428758        38.8785 
 436   0.0000       1.430620        38.9292 
 437   0.0000       1.435335        39.0575 
 438   0.0000       1.437669        39.1210 
 439   0.0000       1.450446        39.4686 
 440   0.0000       1.457470        39.6598 
 441   0.0000       1.463088        39.8127 
 442   0.0000       1.465024        39.8653 
 443   0.0000       1.472693        40.0740 
 444   0.0000       1.474891        40.1338 
 445   0.0000       1.478578        40.2341 
 446   0.0000       1.486704        40.4553 
 447   0.0000       1.492191        40.6046 
 448   0.0000       1.493919        40.6516 
 449   0.0000       1.502523        40.8857 
 450   0.0000       1.505068        40.9550 
 451   0.0000       1.512980        41.1703 
 452   0.0000       1.518045        41.3081 
 453   0.0000       1.519380        41.3444 
 454   0.0000       1.525798        41.5191 
 455   0.0000       1.532295        41.6959 
 456   0.0000       1.532972        41.7143 
 457   0.0000       1.536081        41.7989 
 458   0.0000       1.546887        42.0929 
 459   0.0000       1.554065        42.2883 
 460   0.0000       1.556656        42.3588 
 461   0.0000       1.564702        42.5777 
 462   0.0000       1.568012        42.6678 
 463   0.0000       1.568689        42.6862 
 464   0.0000       1.572888        42.8005 
 465   0.0000       1.579094        42.9693 
 466   0.0000       1.579769        42.9877 
 467   0.0000       1.583980        43.1023 
 468   0.0000       1.587717        43.2040 
 469   0.0000       1.593327        43.3566 
 470   0.0000       1.595287        43.4100 
 471   0.0000       1.598180        43.4887 
 472   0.0000       1.601665        43.5835 
 473   0.0000       1.605523        43.6885 
 474   0.0000       1.607562        43.7440 
 475   0.0000       1.612374        43.8749 
 476   0.0000       1.615393        43.9571 
 477   0.0000       1.621658        44.1276 
 478   0.0000       1.631957        44.4078 
 479   0.0000       1.636489        44.5311 
 480   0.0000       1.641396        44.6647 
 481   0.0000       1.646851        44.8131 
 482   0.0000       1.650375        44.9090 
 483   0.0000       1.651367        44.9360 
 484   0.0000       1.663304        45.2608 
 485   0.0000       1.671020        45.4708 
 486   0.0000       1.671855        45.4935 
 487   0.0000       1.676232        45.6126 
 488   0.0000       1.678859        45.6841 
 489   0.0000       1.684128        45.8275 
 490   0.0000       1.688600        45.9491 
 491   0.0000       1.693518        46.0830 
 492   0.0000       1.698332        46.2140 
 493   0.0000       1.699944        46.2578 
 494   0.0000       1.705535        46.4100 
 495   0.0000       1.711163        46.5631 
 496   0.0000       1.711725        46.5784 
 497   0.0000       1.714387        46.6508 
 498   0.0000       1.717570        46.7375 
 499   0.0000       1.725904        46.9642 
 500   0.0000       1.730176        47.0805 
 501   0.0000       1.739097        47.3232 
 502   0.0000       1.742191        47.4074 
 503   0.0000       1.751057        47.6487 
 504   0.0000       1.752976        47.7009 
 505   0.0000       1.761626        47.9363 
 506   0.0000       1.762534        47.9610 
 507   0.0000       1.766148        48.0593 
 508   0.0000       1.775636        48.3175 
 509   0.0000       1.780505        48.4500 
 510   0.0000       1.788260        48.6610 
 511   0.0000       1.789542        48.6959 
 512   0.0000       1.792883        48.7868 
 513   0.0000       1.793182        48.7950 
 514   0.0000       1.798793        48.9476 
 515   0.0000       1.802858        49.0583 
 516   0.0000       1.809875        49.2492 
 517   0.0000       1.814541        49.3762 
 518   0.0000       1.821437        49.5638 
 519   0.0000       1.826463        49.7006 
 520   0.0000       1.838185        50.0196 
 521   0.0000       1.849909        50.3386 
 522   0.0000       1.857152        50.5357 
 523   0.0000       1.862919        50.6926 
 524   0.0000       1.866573        50.7920 
 525   0.0000       1.869780        50.8793 
 526   0.0000       1.874279        51.0017 
 527   0.0000       1.884147        51.2703 
 528   0.0000       1.888133        51.3787 
 529   0.0000       1.894616        51.5551 
 530   0.0000       1.901420        51.7403 
 531   0.0000       1.902213        51.7618 
 532   0.0000       1.912442        52.0402 
 533   0.0000       1.917116        52.1674 
 534   0.0000       1.922602        52.3167 
 535   0.0000       1.929842        52.5137 
 536   0.0000       1.930748        52.5383 
 537   0.0000       1.930877        52.5418 
 538   0.0000       1.938138        52.7394 
 539   0.0000       1.941134        52.8209 
 540   0.0000       1.942434        52.8563 
 541   0.0000       1.946746        52.9737 
 542   0.0000       1.952569        53.1321 
 543   0.0000       1.955280        53.2059 
 544   0.0000       1.967191        53.5300 
 545   0.0000       1.972397        53.6717 
 546   0.0000       1.976230        53.7760 
 547   0.0000       1.985371        54.0247 
 548   0.0000       1.998712        54.3877 
 549   0.0000       2.002919        54.5022 
 550   0.0000       2.005080        54.5610 
 551   0.0000       2.015947        54.8567 
 552   0.0000       2.020606        54.9835 
 553   0.0000       2.024619        55.0927 
 554   0.0000       2.034988        55.3748 
 555   0.0000       2.037466        55.4423 
 556   0.0000       2.048624        55.7459 
 557   0.0000       2.059221        56.0342 
 558   0.0000       2.071308        56.3631 
 559   0.0000       2.073057        56.4108 
 560   0.0000       2.074459        56.4489 
 561   0.0000       2.075446        56.4757 
 562   0.0000       2.087490        56.8035 
 563   0.0000       2.093045        56.9547 
 564   0.0000       2.100595        57.1601 
 565   0.0000       2.113813        57.5198 
 566   0.0000       2.114541        57.5396 
 567   0.0000       2.121954        57.7413 
 568   0.0000       2.129087        57.9354 
 569   0.0000       2.139459        58.2177 
 570   0.0000       2.142340        58.2960 
 571   0.0000       2.145095        58.3710 
 572   0.0000       2.150070        58.5064 
 573   0.0000       2.155724        58.6602 
 574   0.0000       2.163034        58.8591 
 575   0.0000       2.182375        59.3854 
 576   0.0000       2.187460        59.5238 
 577   0.0000       2.189402        59.5767 
 578   0.0000       2.195570        59.7445 
 579   0.0000       2.197505        59.7972 
 580   0.0000       2.207486        60.0688 
 581   0.0000       2.210468        60.1499 
 582   0.0000       2.217634        60.3449 
 583   0.0000       2.221901        60.4610 
 584   0.0000       2.226431        60.5843 
 585   0.0000       2.232879        60.7597 
 586   0.0000       2.239354        60.9359 
 587   0.0000       2.246791        61.1383 
 588   0.0000       2.254181        61.3394 
 589   0.0000       2.256703        61.4080 
 590   0.0000       2.261282        61.5326 
 591   0.0000       2.265439        61.6457 
 592   0.0000       2.272192        61.8295 
 593   0.0000       2.273099        61.8542 
 594   0.0000       2.281190        62.0743 
 595   0.0000       2.286129        62.2087 
 596   0.0000       2.290293        62.3220 
 597   0.0000       2.298890        62.5560 
 598   0.0000       2.300746        62.6065 
 599   0.0000       2.306454        62.7618 
 600   0.0000       2.317421        63.0602 
 601   0.0000       2.321631        63.1748 
 602   0.0000       2.333999        63.5114 
 603   0.0000       2.343862        63.7797 
 604   0.0000       2.345327        63.8196 
 605   0.0000       2.350204        63.9523 
 606   0.0000       2.354225        64.0617 
 607   0.0000       2.360387        64.2294 
 608   0.0000       2.367882        64.4333 
 609   0.0000       2.376830        64.6768 
 610   0.0000       2.381909        64.8150 
 611   0.0000       2.389332        65.0170 
 612   0.0000       2.394427        65.1557 
 613   0.0000       2.395202        65.1767 
 614   0.0000       2.405968        65.4697 
 615   0.0000       2.422764        65.9268 
 616   0.0000       2.434003        66.2326 
 617   0.0000       2.435890        66.2839 
 618   0.0000       2.454306        66.7851 
 619   0.0000       2.465361        67.0859 
 620   0.0000       2.467557        67.1456 
 621   0.0000       2.472640        67.2839 
 622   0.0000       2.478361        67.4396 
 623   0.0000       2.485218        67.6262 
 624   0.0000       2.518817        68.5405 
 625   0.0000       2.524815        68.7037 
 626   0.0000       2.532635        68.9165 
 627   0.0000       2.546098        69.2828 
 628   0.0000       2.553754        69.4912 
 629   0.0000       2.562290        69.7234 
 630   0.0000       2.573077        70.0170 
 631   0.0000       2.574806        70.0640 
 632   0.0000       2.583391        70.2976 
 633   0.0000       2.587471        70.4087 
 634   0.0000       2.594325        70.5952 
 635   0.0000       2.607464        70.9527 
 636   0.0000       2.608509        70.9811 
 637   0.0000       2.624702        71.4218 
 638   0.0000       2.627164        71.4888 
 639   0.0000       2.629946        71.5645 
 640   0.0000       2.631737        71.6132 
 641   0.0000       2.640429        71.8497 
 642   0.0000       2.645948        71.9999 
 643   0.0000       2.655937        72.2717 
 644   0.0000       2.662398        72.4475 
 645   0.0000       2.665979        72.5450 
 646   0.0000       2.667254        72.5797 
 647   0.0000       2.669625        72.6442 
 648   0.0000       2.675409        72.8016 
 649   0.0000       2.681412        72.9649 
 650   0.0000       2.683625        73.0251 
 651   0.0000       2.693779        73.3015 
 652   0.0000       2.701578        73.5137 
 653   0.0000       2.705344        73.6161 
 654   0.0000       2.708010        73.6887 
 655   0.0000       2.715437        73.8908 
 656   0.0000       2.725562        74.1663 
 657   0.0000       2.725975        74.1776 
 658   0.0000       2.741571        74.6019 
 659   0.0000       2.749563        74.8194 
 660   0.0000       2.753356        74.9226 
 661   0.0000       2.754693        74.9590 
 662   0.0000       2.757089        75.0242 
 663   0.0000       2.761359        75.1404 
 664   0.0000       2.762821        75.1802 
 665   0.0000       2.772819        75.4522 
 666   0.0000       2.776086        75.5411 
 667   0.0000       2.779984        75.6472 
 668   0.0000       2.786491        75.8243 
 669   0.0000       2.793250        76.0082 
 670   0.0000       2.795869        76.0795 
 671   0.0000       2.797550        76.1252 
 672   0.0000       2.802169        76.2509 
 673   0.0000       2.805484        76.3411 
 674   0.0000       2.812222        76.5245 
 675   0.0000       2.817854        76.6777 
 676   0.0000       2.824178        76.8498 
 677   0.0000       2.828941        76.9794 
 678   0.0000       2.834524        77.1313 
 679   0.0000       2.837420        77.2101 
 680   0.0000       2.842382        77.3451 
 681   0.0000       2.844441        77.4012 
 682   0.0000       2.847302        77.4790 
 683   0.0000       2.853047        77.6354 
 684   0.0000       2.857505        77.7567 
 685   0.0000       2.860390        77.8352 
 686   0.0000       2.862250        77.8858 
 687   0.0000       2.876229        78.2662 
 688   0.0000       2.879290        78.3495 
 689   0.0000       2.880753        78.3893 
 690   0.0000       2.887864        78.5828 
 691   0.0000       2.895021        78.7775 
 692   0.0000       2.902111        78.9705 
 693   0.0000       2.908576        79.1464 
 694   0.0000       2.912064        79.2413 
 695   0.0000       2.913778        79.2879 
 696   0.0000       2.917897        79.4000 
 697   0.0000       2.919793        79.4516 
 698   0.0000       2.930957        79.7554 
 699   0.0000       2.939584        79.9901 
 700   0.0000       2.945909        80.1622 
 701   0.0000       2.948065        80.2209 
 702   0.0000       2.950416        80.2849 
 703   0.0000       2.951332        80.3098 
 704   0.0000       2.965603        80.6982 
 705   0.0000       2.972395        80.8830 
 706   0.0000       2.978141        81.0393 
 707   0.0000       2.986001        81.2532 
 708   0.0000       2.994493        81.4843 
 709   0.0000       2.998126        81.5832 
 710   0.0000       3.001884        81.6854 
 711   0.0000       3.006289        81.8053 
 712   0.0000       3.012278        81.9683 
 713   0.0000       3.018769        82.1449 
 714   0.0000       3.019929        82.1765 
 715   0.0000       3.021685        82.2242 
 716   0.0000       3.031990        82.5047 
 717   0.0000       3.042908        82.8017 
 718   0.0000       3.047703        82.9322 
 719   0.0000       3.054070        83.1055 
 720   0.0000       3.059199        83.2450 
 721   0.0000       3.062327        83.3301 
 722   0.0000       3.064204        83.3812 
[...]
 130   8.616     143.9   0.004737   0.004579  -1.259635  -1.007089     0.19 (  71->  95)    0.11 (  70->  95)    0.08 (  71->  96)
 131   8.619     143.8   0.026895   0.024988  -8.252867  -6.907321     0.08 (  66->  89)    0.06 (  71->  95)    0.03 (  71->  96)
 132   8.633     143.6   0.026992   0.026631  -0.537732  -2.563885     0.14 (  66->  89)    0.05 (  70->  80)    0.03 (  66->  97)
 133   8.637     143.5   0.009699   0.008819   4.155113   3.943882     0.09 (  38->  75)    0.06 (  52->  77)    0.05 (  50->  77)
 134   8.643     143.4   0.025757   0.026382  20.996816  15.289646     0.11 (  66->  89)    0.06 (  72->  85)    0.04 (  73->  99)
 135   8.654     143.3   0.010551   0.009042  -6.809628  -6.390987     0.06 (  70->  86)    0.06 (  71->  87)    0.05 (  73-> 100)
 136   8.665     143.1   0.013732   0.010511  12.316620  10.800540     0.08 (  73->  98)    0.04 (  73->  99)    0.04 (  72->  85)
 137   8.673     142.9   0.000991   0.001301  -2.898306  -2.912495     0.29 (  55->  78)    0.09 (  62->  78)    0.05 (  71->  86)
 138   8.684     142.8   0.003310   0.003337  -4.364679  -5.661384     0.07 (  63->  75)    0.05 (  55->  78)    0.05 (  71->  86)
 139   8.697     142.6   0.009689   0.008021   7.423240   6.749693     0.07 (  64->  77)    0.06 (  62->  78)    0.04 (  71->  86)
 140   8.704     142.4   0.007184   0.006558  -13.648633  -12.740849     0.23 (  63->  75)    0.17 (  55->  78)    0.03 (  38->  75)
 141   8.716     142.2   0.006616   0.005938  -25.829516  -24.869174     0.11 (  55->  78)    0.04 (  63->  75)    0.04 (  65->  84)
 142   8.742     141.8   0.004932   0.005059  14.198826  14.226513     0.10 (  51->  77)    0.06 (  63->  75)    0.05 (  48->  77)
 143   8.756     141.6   0.029642   0.026421  21.008983  18.236904     0.09 (  57->  78)    0.08 (  56->  78)    0.07 (  68->  78)
 144   8.769     141.4   0.016256   0.016737  -73.222386  -70.907378     0.14 (  64->  77)    0.05 (  74-> 101)    0.04 (  72->  97)
 145   8.772     141.3   0.036212   0.036140   9.429487  12.212464     0.21 (  64->  77)    0.05 (  72->  92)    0.04 (  64->  81)
 146   8.788     141.1   0.005605   0.004569  -7.467687  -7.406269     0.15 (  38->  75)    0.09 (  63->  75)    0.05 (  51->  77)
 147   8.819     140.6   0.017340   0.014940  -36.864589  -32.499216     0.11 (  72->  92)    0.11 (  42->  75)    0.03 (  63->  75)
 148   8.845     140.2   0.047126   0.042911   9.345468  13.585746     0.05 (  69->  88)    0.04 (  73-> 100)    0.04 (  67->  82)
 149   8.853     140.1   0.005980   0.006297  -3.031918  -2.389891     0.05 (  41->  76)    0.04 (  39->  76)    0.03 (  73-> 102)
 150   8.868     139.8   0.020267   0.018461  -0.811387  -0.925273     0.09 (  43->  75)    0.06 (  63->  75)    0.04 (  38->  75)
 151   8.870     139.8   0.010267   0.009374   2.810834   2.586513     0.11 (  69->  88)    0.04 (  39->  76)    0.03 (  70->  99)
 152   8.884     139.6   0.007486   0.005990  -2.053629  -2.152693     0.11 (  69->  84)    0.05 (  69->  85)    0.05 (  63->  75)
 153   8.890     139.5   0.018409   0.017238  -10.128579  -11.440238     0.07 (  68->  78)    0.04 (  55->  78)    0.04 (  62->  78)
 154   8.898     139.3   0.002301   0.002125   3.230478   1.216862     0.05 (  74-> 105)    0.03 (  68->  94)    0.03 (  73-> 105)
 155   8.910     139.2   0.000887   0.000979   4.844873   5.040369     0.04 (  48->  77)    0.04 (  69->  84)    0.04 (  73-> 102)
 156   8.913     139.1   0.003896   0.003801   0.293790   0.170046     0.82 (  64->  76)    0.01 (  70->  79)    0.01 (  73-> 102)
 157   8.921     139.0   0.015290   0.015095  -13.662273  -13.941262     0.14 (  64->  76)    0.04 (  54->  78)    0.04 (  43->  75)
 158   8.948     138.6   0.013055   0.013074  -18.030671  -18.227757     0.20 (  66->  91)    0.08 (  54->  78)    0.07 (  66->  94)
 159   8.964     138.3   0.014153   0.013495  23.596257  22.243513     0.14 (  66->  91)    0.12 (  54->  78)    0.05 (  66->  94)
 160   8.977     138.1   0.013379   0.012564   2.505965   2.401323     0.09 (  71->  80)    0.08 (  62->  79)    0.07 (  71->  79)
 161   8.985     138.0   0.020577   0.018908  11.117192  10.178517     0.06 (  48->  77)    0.06 (  54->  78)    0.04 (  41->  76)
 162   8.997     137.8   0.062745   0.056930  -9.045120  -7.064436     0.07 (  39->  76)    0.05 (  41->  76)    0.05 (  48->  77)
 163   9.013     137.6   0.027236   0.023499  -11.654046  -12.160261     0.08 (  68->  81)    0.05 (  58->  81)    0.04 (  66->  91)
 164   9.035     137.2   0.011225   0.010312   6.552331   5.309046     0.04 (  67->  83)    0.04 (  72->  98)    0.04 (  73-> 103)
 165   9.045     137.1   0.013848   0.012418  -7.358912  -7.194274     0.03 (  58->  77)    0.02 (  69->  90)    0.02 (  42->  75)
 166   9.053     137.0   0.002536   0.002178   5.092107   4.225159     0.14 (  72->  98)    0.06 (  72->  94)    0.04 (  72-> 105)
 167   9.055     136.9   0.006664   0.005160  -2.927916  -2.430077     0.12 (  40->  76)    0.05 (  63->  77)    0.04 (  60->  79)
 168   9.075     136.6   0.031077   0.030614  -18.539065  -18.839532     0.09 (  39->  76)    0.06 (  69->  90)    0.05 (  69->  96)
 169   9.078     136.6   0.092234   0.078134  40.242330  36.544367     0.08 (  40->  76)    0.05 (  41->  76)    0.04 (  56->  78)
 170   9.087     136.4   0.011284   0.010287  10.070361   9.339305     0.06 (  60->  79)    0.04 (  66->  92)    0.04 (  66->  85)
 171   9.103     136.2   0.016992   0.016366  31.995179  32.211753     0.06 (  47->  75)    0.05 (  66->  92)    0.04 (  50->  75)
 172   9.116     136.0   0.001574   0.001313   4.294399   3.844644     0.18 (  71->  96)    0.11 (  71->  90)    0.08 (  71->  84)
 173   9.131     135.8   0.011281   0.011185  -28.770265  -28.855378     0.16 (  41->  76)    0.08 (  40->  76)    0.04 (  59->  76)
 174   9.136     135.7   0.014623   0.010982   5.712221   5.244207     0.08 (  39->  76)    0.03 (  56->  78)    0.03 (  48->  77)
 175   9.154     135.4   0.044756   0.035636  -36.027339  -32.773980     0.03 (  48->  77)    0.03 (  69->  79)    0.03 (  40->  76)
 176   9.165     135.3   0.005490   0.004830   1.041896   2.323262     0.14 (  66->  92)    0.11 (  66->  85)    0.07 (  63->  77)
 177   9.171     135.2   0.050347   0.046126  -26.855875  -24.732477     0.06 (  69->  88)    0.03 (  73->  86)    0.02 (  70->  86)
 178   9.181     135.0   0.016240   0.014847  31.204797  30.022911     0.05 (  67->  83)    0.05 (  69->  88)    0.03 (  74-> 107)
 179   9.210     134.6   0.031609   0.030220  -17.750934  -16.792716     0.08 (  62->  75)    0.05 (  39->  76)    0.04 (  69->  90)
 180   9.217     134.5   0.000172   0.000122  -4.978082  -4.944390     0.07 (  65->  83)    0.04 (  67->  83)    0.03 (  39->  76)
 181   9.230     134.3   0.164186   0.145016  -1.860076  -1.046449     0.28 (  66->  83)    0.09 (  62->  75)    0.05 (  60->  83)
 182   9.244     134.1   0.031790   0.026945  -1.768453  -1.285851     0.09 (  49->  76)    0.06 (  45->  76)    0.05 (  62->  75)
 183   9.251     134.0   0.094252   0.086623   0.851197  -0.116944     0.12 (  62->  75)    0.08 (  60->  75)    0.04 (  52->  78)
 184   9.261     133.9   0.008094   0.006842  -3.599753  -3.270411     0.19 (  72-> 101)    0.05 (  72-> 104)    0.03 (  72-> 106)
 185   9.273     133.7   0.006859   0.006205  -1.861209  -2.255253     0.09 (  63->  77)    0.05 (  52->  78)    0.04 (  50->  78)
 186   9.280     133.6   0.032409   0.028012  77.491579  72.793210     0.07 (  52->  78)    0.04 (  50->  78)    0.04 (  72-> 104)
 187   9.288     133.5   0.026660   0.023520  -12.317152  -9.057488     0.05 (  63->  77)    0.04 (  69->  79)    0.03 (  52->  78)
 188   9.296     133.4   0.067559   0.060486  -51.439728  -48.010973     0.04 (  70->  86)    0.03 (  58->  81)    0.03 (  58->  79)
 189   9.304     133.3   0.026138   0.023960  -17.982248  -15.998829     0.06 (  71->  80)    0.05 (  71->  83)    0.05 (  71->  84)
 190   9.318     133.1   0.021690   0.018310  33.489833  30.582905     0.08 (  61->  77)    0.04 (  60->  79)    0.04 (  44->  77)
 191   9.333     132.8   0.019289   0.017207   6.240080   6.270426     0.07 (  71->  84)    0.06 (  70->  81)    0.03 (  68->  85)
 192   9.346     132.7   0.021874   0.021245  -1.783396  -1.799940     0.04 (  70->  80)    0.03 (  71->  95)    0.03 (  70->  83)
 193   9.372     132.3   0.003536   0.002819   3.300927   2.982141     0.17 (  40->  76)    0.10 (  59->  76)    0.06 (  44->  76)
 194   9.383     132.1   0.014997   0.013093  -11.224831  -10.861007     0.06 (  74->  88)    0.04 (  70->  81)    0.03 (  57->  79)
 195   9.391     132.0   0.018662   0.019007  30.465144  30.334041     0.09 (  61->  76)    0.05 (  65->  83)    0.03 (  67->  83)
 196   9.400     131.9   0.000792   0.000777  -2.793349  -2.595695     0.14 (  54->  82)    0.07 (  61->  76)    0.07 (  36->  76)
 197   9.415     131.7   0.002881   0.002631  -0.399835  -0.337132     0.18 (  61->  76)    0.08 (  54->  82)    0.02 (  36->  76)
 198   9.424     131.6   0.018614   0.015699  -0.338251   0.332194     0.05 (  74->  88)    0.05 (  72->  82)    0.04 (  55->  79)
 199   9.430     131.5   0.017764   0.015509  -11.533119  -11.540511     0.16 (  61->  76)    0.04 (  54->  82)    0.03 (  62->  82)
 200   9.434     131.4   0.009124   0.008742  -5.395564  -5.375515     0.07 (  74->  91)    0.06 (  74->  89)    0.04 (  74->  88)
 201   9.440     131.3   0.024496   0.020741  13.255097  12.911535     0.08 (  61->  76)    0.06 (  74->  88)    0.03 (  71->  96)
 202   9.448     131.2   0.019948   0.017418  -4.368012  -4.128378     0.13 (  72->  82)    0.03 (  66->  83)    0.03 (  71->  81)
 203   9.464     131.0   0.012324   0.012100   2.784565   2.600427     0.04 (  69->  96)    0.04 (  74->  89)    0.03 (  74->  91)
 204   9.480     130.8   0.019877   0.016582   4.109793   4.041651     0.07 (  62->  82)    0.06 (  61->  76)    0.04 (  69->  87)
 205   9.503     130.5   0.007828   0.006423  -3.412429  -2.907191     0.13 (  74->  89)    0.05 (  72-> 101)    0.03 (  74->  96)
 206   9.513     130.3   0.005285   0.004677  17.499003  16.360574     0.04 (  43->  77)    0.03 (  47->  77)    0.03 (  74->  89)
 207   9.530     130.1   0.006859   0.006226  -4.659071  -4.902161     0.27 (  72->  82)    0.03 (  67->  85)    0.03 (  70->  82)
 208   9.538     130.0   0.010465   0.008885  11.761716  11.036154     0.14 (  71->  84)    0.07 (  70->  84)    0.06 (  71-> 100)
 209   9.543     129.9   0.017332   0.015167  -29.104723  -26.482461     0.04 (  72->  82)    0.03 (  45->  77)    0.03 (  55->  82)
 210   9.553     129.8   0.011351   0.009751  26.254547  24.436926     0.07 (  53->  78)    0.05 (  69->  96)    0.04 (  51->  78)
 211   9.576     129.5   0.036677   0.030622  12.672273  12.090448     0.29 (  69->  80)    0.12 (  69->  79)    0.09 (  69->  93)
 212   9.596     129.2   0.030615   0.025611  25.258531  23.082189     0.08 (  61->  77)    0.05 (  54->  80)    0.05 (  56->  79)
 213   9.610     129.0   0.002370   0.001922  -3.423877  -2.838396     0.14 (  45->  77)    0.06 (  62->  82)    0.04 (  39->  76)
 214   9.617     128.9   0.004378   0.003611   2.728027   2.475387     0.19 (  51->  78)    0.16 (  49->  78)    0.09 (  55->  86)
 215   9.637     128.7   0.042249   0.036007  -14.445449  -13.917777     0.06 (  72-> 108)    0.04 (  73-> 108)    0.03 (  71->  81)
 216   9.649     128.5   0.031935   0.027283  63.747398  59.595881     0.17 (  71->  81)    0.04 (  70->  81)    0.03 (  71->  93)
 217   9.665     128.3   0.090493   0.075651  -62.506957  -56.364032     0.09 (  55->  82)    0.06 (  55->  79)    0.04 (  55->  80)
 218   9.677     128.1   0.103804   0.086214  30.936031  26.920960     0.07 (  71->  81)    0.07 (  70->  81)    0.04 (  55->  82)
 219   9.695     127.9   0.014015   0.012172   0.992985   0.902485     0.04 (  65->  79)    0.03 (  56->  75)    0.03 (  67->  80)
 220   9.708     127.7   0.003721   0.003276  -6.936370  -7.017366     0.10 (  67->  78)    0.09 (  65->  78)    0.04 (  71->  83)
 221   9.716     127.6   0.052264   0.042538  -11.541778  -10.984470     0.09 (  57->  75)    0.04 (  54->  79)    0.03 (  62->  80)
 222   9.736     127.3   0.026453   0.021346  35.158020  31.676307     0.08 (  44->  77)    0.06 (  60->  80)    0.05 (  61->  77)
 223   9.737     127.3   0.017374   0.015800   2.380865   1.966297     0.09 (  65->  78)    0.09 (  67->  78)    0.07 (  49->  78)
 224   9.740     127.3   0.013850   0.011559  -5.757203  -5.491686     0.07 (  57->  75)    0.06 (  59->  76)    0.06 (  47->  76)
 225   9.747     127.2   0.005215   0.004593  -8.651284  -6.955760     0.06 (  71->  83)    0.06 (  71-> 100)    0.04 (  70->  83)
 226   9.759     127.0   0.014146   0.012130  -12.788029  -11.811482     0.07 (  56->  75)    0.07 (  57->  75)    0.04 (  58->  75)
 227   9.776     126.8   0.023601   0.020999  -34.072764  -32.508442     0.09 (  55->  75)    0.02 (  60->  84)    0.02 (  56->  75)
 228   9.789     126.7   0.030168   0.025324  -31.561420  -28.434642     0.05 (  73-> 106)    0.03 (  55->  75)    0.03 (  70->  90)
 229   9.795     126.6   0.140610   0.114401  25.801209  22.878268     0.08 (  69->  83)    0.06 (  71->  83)    0.05 (  66->  84)
 230   9.802     126.5   0.001620   0.001101  -6.680791  -6.401986     0.11 (  55->  75)    0.09 (  61->  77)    0.05 (  56->  75)
 231   9.804     126.5   0.002351   0.001952   7.361914   6.287167     0.22 (  55->  75)    0.07 (  69->  83)    0.04 (  69->  84)
 232   9.814     126.3   0.010831   0.009378   1.802511   1.457761     0.08 (  69->  83)    0.06 (  71->  99)    0.03 (  71-> 102)
 233   9.824     126.2   0.106228   0.090879  40.218000  37.447244     0.11 (  69->  83)    0.06 (  71->  99)    0.05 (  67->  80)
 234   9.833     126.1   0.027644   0.022347  -34.509904  -26.380637     0.06 (  72-> 109)    0.04 (  71->  99)    0.04 (  72-> 113)
 235   9.837     126.0   0.086173   0.076270   6.596297   3.550465     0.10 (  66->  97)    0.09 (  66->  84)    0.03 (  66->  87)
 236   9.847     125.9   0.036098   0.029154  -15.104113  -12.704599     0.09 (  69->  83)    0.05 (  70->  87)    0.05 (  58->  76)
 237   9.857     125.8   0.003077   0.002620   5.637233   4.415947     0.07 (  58->  76)    0.03 (  69->  81)    0.02 (  67->  86)
 238   9.867     125.7   0.003479   0.003194  -10.960020  -10.959476     0.21 (  35->  75)    0.13 (  55->  75)    0.05 (  44->  75)
 239   9.882     125.5   0.047772   0.047042   0.294547  -0.187641     0.07 (  71->  99)    0.06 (  68->  82)    0.05 (  69->  83)
 240   9.889     125.4   0.009137   0.007712   3.608714   2.878942     0.14 (  58->  76)    0.08 (  69->  81)    0.08 (  57->  76)
 241   9.903     125.2   0.027449   0.024862   8.500195   7.045305     0.11 (  69->  81)    0.05 (  68->  82)    0.04 (  65->  80)
 242   9.906     125.2   0.007746   0.006600   3.794122   3.135751     0.23 (  69->  81)    0.11 (  58->  76)    0.03 (  35->  75)
 243   9.912     125.1   0.011543   0.009416  -19.171179  -17.312811     0.24 (  66->  78)    0.15 (  59->  76)    0.05 (  52->  76)
 244   9.922     125.0   0.000538   0.000474   7.603507   8.053459     0.22 (  35->  75)    0.09 (  47->  81)    0.08 (  66->  78)
 245   9.925     124.9   0.015646   0.013308   2.422014   4.177363     0.17 (  66->  78)    0.13 (  59->  76)    0.09 (  63->  86)
 246   9.930     124.9   0.040987   0.033726  -12.818646  -12.124634     0.25 (  66->  78)    0.12 (  63->  86)    0.03 (  35->  75)
 247   9.946     124.7   0.085181   0.073274  52.008788  47.650494     0.05 (  60->  83)    0.04 (  69->  99)    0.04 (  66->  83)
 248   9.962     124.5   0.040561   0.034640  -26.672231  -24.782729     0.17 (  63->  86)    0.05 (  60->  84)    0.04 (  63->  85)
 249   9.973     124.3   0.038797   0.031277  25.418456  23.446930     0.04 (  71-> 102)    0.03 (  74-> 115)    0.03 (  70-> 102)
 250   9.984     124.2   0.012899   0.010477   0.002300   0.070194     0.06 (  63->  95)    0.04 (  63->  90)    0.03 (  69->  99)
 251   9.996     124.0   0.001931   0.001668  -12.331805  -11.484681     0.23 (  66->  79)    0.14 (  66->  80)    0.10 (  66->  92)

sTD-DFT done

Total run time:       46.098 sec

           *** ORCA-CIS/TD-DFT FINISHED WITHOUT ERROR ***


-------------------------------------------------------------------------------
                          DFT DISPERSION CORRECTION                            
                                                                               
                              DFTD3 V3.1  Rev 1                                
                              USING zero damping                               
-------------------------------------------------------------------------------
The omegaB97X-D3 functional is recognized. Fit by Chai et al.
Active option DFTDOPT                   ...         3   

molecular C6(AA) [au] = 37871.039126 


            DFT-D V3
 parameters
 s6 scaling factor         :     1.0000 
 rs6 scaling factor        :     1.2810 
 s8 scaling factor         :     1.0000 
 rs8 scaling factor        :     1.0940 
 Damping factor alpha6     :    14.0000 
 Damping factor alpha8     :    16.0000 
 ad hoc parameters k1-k3   :    16.0000     1.3333    -4.0000 

 Edisp/kcal,au: -13.057122772360  -0.020807847402 
 E6   /kcal   :  -6.190788166 
 E8   /kcal   :  -6.866334606 
 % E8         :  52.586888596 

-------------------------   ----------------
Dispersion correction           -0.020807847
-------------------------   ----------------


-------------------------   --------------------
FINAL SINGLE POINT ENERGY     -2105.845835528316
-------------------------   --------------------


                            ***************************************
                            *     ORCA property calculations      *
                            ***************************************

                                    ---------------------
                                    Active property flags
                                    ---------------------
   (+) Dipole Moment
   (+) Quadrupole Moment


------------------------------------------------------------------------------
                       ORCA ELECTRIC PROPERTIES CALCULATION
------------------------------------------------------------------------------

Dipole Moment Calculation                       ... on
Quadrupole Moment Calculation                   ... on
Polarizability Calculation                      ... off
GBWName                                         ... total_job2.gbw
Electron density file                           ... total_job2.scfp.tmp

-------------
DIPOLE MOMENT
-------------
                                X             Y             Z
Electronic contribution:     21.76772      -2.67200       3.61173
Nuclear contribution   :    -22.60376       3.06981      -4.20384
                        -----------------------------------------
Total Dipole Moment    :     -0.83604       0.39782      -0.59211
                        -----------------------------------------
Magnitude (a.u.)       :      1.09901
Magnitude (Debye)      :      2.79345


------------------------
QUADRUPOLE MOMENT (A.U.)
------------------------

                XX           YY           ZZ           XY           XZ           YZ
  NUC     24810.52512   1787.51178   1052.72159    216.56324    943.78038  -1074.74444
  EL     -24957.44540  -1926.35643  -1199.84567   -216.71082   -949.82764   1064.36734
  TOT      -146.92028   -138.84465   -147.12408     -0.14758     -6.04726    -10.37709


Timings for individual modules:

Sum of individual times         ...      202.173 sec (=   3.370 min)
GTO integral calculation        ...        6.614 sec (=   0.110 min)   3.3 %
SCF iterations                  ...      147.237 sec (=   2.454 min)  72.8 %
CIS module                      ...       48.323 sec (=   0.805 min)  23.9 %



                             ****ORCA TERMINATED NORMALLY****
TOTAL RUN TIME: 0 days 0 hours 12 minutes 53 seconds 706 msec
