
                                 *****************
                                 * O   R   C   A *
                                 *****************

           --- An Ab Initio, DFT and Semiempirical electronic structure package ---

                  #######################################################
                  #                        -***-                        #
                  #  Department of molecular theory and spectroscopy    #
                  #              Directorship: Frank Neese              #
                  # Max Planck Institute for Chemical Energy Conversion #
                  #                  D-45470 Muelheim/Ruhr              #
                  #                       Germany                       #
                  #                                                     #
                  #                  All rights reserved                #
                  #                        -***-                        #
                  #######################################################


                         Program Version 4.0.0 -  RELEASE  -


 With contributions from (in alphabetic order):
   Daniel Aravena         : Magnetic Properties
   Michael Atanasov       : Ab Initio Ligand Field Theory
   Ute Becker             : Parallelization
   Martin Brehm           : Molecular dynamics
   Dmytro Bykov           : SCF Hessian
   Vijay G. Chilkuri      : MRCI spin determinant printing
   Dipayan Datta          : RHF DLPNO-CCSD density
   Achintya Kumar Dutta   : EOM-CC, STEOM-CC
   Dmitry Ganyushin       : Spin-Orbit,Spin-Spin,Magnetic field MRCI
   Yang Guo               : DLPNO-NEVPT2, CIM, IAO-localization
   Andreas Hansen         : Spin unrestricted coupled pair/coupled cluster methods
   Lee Huntington         : MR-EOM, pCC
   Robert Izsak           : Overlap fitted RIJCOSX, COSX-SCS-MP3, EOM
   Christian Kollmar      : KDIIS, OOCD, Brueckner-CCSD(T), CCSD density
   Simone Kossmann        : Meta GGA functionals, TD-DFT gradient, OOMP2, MP2 Hessian
   Martin Krupicka        : AUTO-CI
   Dagmar Lenk            : GEPOL surface
   Dimitrios Liakos       : Extrapolation schemes; parallel MDCI
   Dimitrios Manganas     : ROCIS; embedding schemes
   Dimitrios Pantazis     : SARC Basis sets
   Taras Petrenko         : DFT Hessian,TD-DFT gradient, ASA, ECA, R-Raman, ABS, FL, XAS/XES, NRVS
   Peter Pinski           : DLPNO-MP2
   Christoph Reimann      : Effective Core Potentials
   Marius Retegan         : Local ZFS, SOC
   Christoph Riplinger    : Optimizer, TS searches, QM/MM, DLPNO-CCSD(T), (RO)-DLPNO pert. Triples
   Tobias Risthaus        : Range-separated hybrids, TD-DFT gradient, RPA, STAB
   Michael Roemelt        : Restricted open shell CIS
   Masaaki Saitow         : Open-shell DLPNO
   Barbara Sandhoefer     : DKH picture change effects
   Kantharuban Sivalingam : CASSCF convergence, NEVPT2, FIC-MRCI
   Georgi Stoychev        : AutoAux
   Boris Wezisla          : Elementary symmetry handling
   Frank Wennmohs         : Technical directorship


 We gratefully acknowledge several colleagues who have allowed us to
 interface, adapt or use parts of their codes:
   Stefan Grimme, W. Hujo, H. Kruse,             : VdW corrections, initial TS optimization,
                  C. Bannwarth                     DFT functionals, gCP, sTDA/sTD-DF
   Ed Valeev                                     : LibInt (2-el integral package), F12 methods
   Garnet Chan, S. Sharma, J. Yang, R. Olivares  : DMRG
   Ulf Ekstrom                                   : XCFun DFT Library
   Mihaly Kallay                                 : mrcc  (arbitrary order and MRCC methods)
   Jiri Pittner, Ondrej Demel                    : Mk-CCSD
   Frank Weinhold                                : gennbo (NPA and NBO analysis)
   Christopher J. Cramer and Donald G. Truhlar   : smd solvation model


 Your calculation uses the libint2 library for the computation of 2-el integrals
 For citations please refer to: http://libint.valeyev.net

 This ORCA versions uses:
   CBLAS   interface :  Fast vector & matrix operations
   LAPACKE interface :  Fast linear algebra routines
   SCALAPACK package :  Parallel linear algebra routines


Your calculation utilizes the atom-pairwise dispersion correction
with the zero-damping scheme (D30)
Cite in your paper:
S.Grimme, J.Antony, S.Ehrlich and H.Krieg, J.Chem.Phys., 132, (2010), 154104 
   

XCFun DFT library Copyright 2009-2010 Ulf Ekstrom and contributors.
See http://admol.org/xcfun for more information. This is free soft-
ware; see the source code for copying conditions. There is ABSOLUTELY
NO WARRANTY; not even for MERCHANTABILITY or FITNESS FOR A PARTICULAR
PURPOSE. For details see the documentation. Scientific users of this 
library should cite U. Ekstrom, L. Visscher, R. Bast, A. J. Thorvald-
sen and K. Ruud; J.Chem.Theor.Comp. 2010, DOI: 10.1021/ct100117s
XCFun Version 0.99 
Your calculation utilizes the basis: def2-TZVP
   F. Weigend and R. Ahlrichs, Phys. Chem. Chem. Phys. 7, 3297 (2005).

Your calculation utilizes the auxiliary basis: def2/J
   F. Weigend, Phys. Chem. Chem. Phys. 8, 1057 (2006).

================================================================================
                                        WARNINGS
                       Please study these warnings very carefully!
================================================================================

Warning: TCutStore was < 0. Adjusted to Thresh (uncritical)
INFO   : Checking CIS options ...

WARNING: CIS/ROCIS methods need fully converged wavefunctions
  ===> : Setting SCFConvForced true
         You can overwrite this default with %scf ConvForced false 


INFO   : the flag for use of LIBINT has been found!

Your calculation utilizes the atom-pairwise dispersion correction
with the zero-damping scheme (D30)
Cite in your paper:
S.Grimme, J.Antony, S.Ehrlich and H.Krieg, J.Chem.Phys., 132, (2010), 154104 
   

XCFun DFT library Copyright 2009-2010 Ulf Ekstrom and contributors.
See http://admol.org/xcfun for more information. This is free soft-
ware; see the source code for copying conditions. There is ABSOLUTELY
NO WARRANTY; not even for MERCHANTABILITY or FITNESS FOR A PARTICULAR
PURPOSE. For details see the documentation. Scientific users of this 
library should cite U. Ekstrom, L. Visscher, R. Bast, A. J. Thorvald-
sen and K. Ruud; J.Chem.Theor.Comp. 2010, DOI: 10.1021/ct100117s
XCFun Version 0.99 
Your calculation utilizes the basis: def2-TZVP
   F. Weigend and R. Ahlrichs, Phys. Chem. Chem. Phys. 7, 3297 (2005).

Your calculation utilizes the auxiliary basis: def2/J
   F. Weigend, Phys. Chem. Chem. Phys. 8, 1057 (2006).

================================================================================
                                        WARNINGS
                       Please study these warnings very carefully!
================================================================================

INFO   : Checking CIS options ...

INFO   : the flag for use of LIBINT has been found!

================================================================================
                                       INPUT FILE
================================================================================
NAME = total.inp
|  1> # 
|  2> !wB97X-D3 def2-TZVP def2/J RIJCOSX Grid5 FinalGrid6 TightSCF
|  3> %pal 
|  4>  nprocs 24
|  5> end
|  6> %tddft
|  7>   Mode sTDDFT
|  8>   nroots 2
|  9>   Ethresh 10.0
| 10>   maxcore 5000
| 11>   triplets true
| 12> end
| 13> * xyz 0 1 
| 14> C 5.08271272 1.38868983 -2.56757997
| 15> C 4.53153534 0.74068515 -1.46516155
| 16> C 5.38369536 0.06599431 -0.57026463
| 17> C 6.78370956 0.08330789 -0.82585550
| 18> C 7.34106944 0.72955284 -1.93983391
| 19> C 6.46814918 1.38119022 -2.80731400
| 20> C 5.19734078 -0.67799177 0.66597096
| 21> C 6.50373182 -1.05369893 1.09913018
| 22> N 7.43597779 -0.60323483 0.18327688
| 23> C 6.74569216 -1.75123896 2.29167949
| 24> C 5.64329731 -2.06782940 3.08272826
| 25> C 4.34855097 -1.71110464 2.68607023
| 26> C 4.08620326 -1.03392446 1.47945352
| 27> H 3.51140205 -1.98922935 3.32230682
| 28> H 8.43820095 -0.72600295 0.25955074
| 29> H 5.78530229 -2.60102697 4.01832915
| 30> H 3.45744085 0.75598131 -1.30520277
| 31> H 8.41371056 0.72484692 -2.11422468
| 32> H 6.86286292 1.89319927 -3.68094375
| 33> H 4.42913265 1.90992497 -3.26172046
| 34> S -2.23661725 0.11862337 -0.15044592
| 35> C -1.11912016 -0.12013842 1.20096736
| 36> N -1.71003498 -0.07440363 2.38686289
| 37> N -3.05481515 0.15820738 2.31239038
| 38> C -3.51818241 0.27322655 1.07371308
| 39> C 0.29499133 -0.35176459 1.01065601
| 40> N 0.87862115 -0.40734432 -0.17906801
| 41> N 2.22570340 -0.63611354 -0.11045247
| 42> C 2.69160704 -0.75183763 1.12367042
| 43> S 1.41584397 -0.59206652 2.35733174
| 44> C -7.57492304 1.55979723 0.46479621
| 45> C -6.98604489 0.74248130 -0.53435919
| 46> C -5.65124320 0.24820122 -0.37200357
| 47> C -4.92144450 0.63145166 0.80877361
| 48> C -5.55383797 1.41307942 1.77546730
| 49> C -6.87326800 1.87282744 1.61089312
| 50> C -5.13282392 -0.62933259 -1.36782543
| 51> C -5.87350692 -0.96140718 -2.48480819
| 52> C -7.17302523 -0.44516167 -2.67911620
| 53> C -7.71869616 0.38591816 -1.71040903
| 54> O -8.97734429 0.88004990 -1.85129490
| 55> H -7.74535181 -0.71021821 -3.56422354
| 56> H -4.99916455 1.68795518 2.66887484
| 57> H -7.32656598 2.48881072 2.38270775
| 58> H -5.45583628 -1.63529970 -3.22735205
| 59> H -4.14971381 -1.07163300 -1.24521358
| 60> H -9.37182933 0.56754061 -2.67643994
| 61> H 7.75413066 -2.02332440 2.59028685
| 62> H -8.58722567 1.92358476 0.31462546
| 63> *
| 64> $new_job
| 65> # 
| 66> !wB97X-D3 def2-TZVP def2/J RIJCOSX Grid5 FinalGrid6 TightSCF
| 67> %pal 
| 68>  nprocs 24
| 69> end
| 70> %elprop
| 71>    dipole     true
| 72>    quadrupole true
| 73> end
| 74> %tddft
| 75>   Mode sTDDFT
| 76>   nroots 2
| 77>   Ethresh 10.0
| 78>   maxcore 5000
| 79> end
| 80> * xyz 0 1 
| 81> C 5.08271272 1.38868983 -2.56757997
| 82> C 4.53153534 0.74068515 -1.46516155
| 83> C 5.38369536 0.06599431 -0.57026463
| 84> C 6.78370956 0.08330789 -0.82585550
| 85> C 7.34106944 0.72955284 -1.93983391
| 86> C 6.46814918 1.38119022 -2.80731400
| 87> C 5.19734078 -0.67799177 0.66597096
| 88> C 6.50373182 -1.05369893 1.09913018
| 89> N 7.43597779 -0.60323483 0.18327688
| 90> C 6.74569216 -1.75123896 2.29167949
| 91> C 5.64329731 -2.06782940 3.08272826
| 92> C 4.34855097 -1.71110464 2.68607023
| 93> C 4.08620326 -1.03392446 1.47945352
| 94> H 3.51140205 -1.98922935 3.32230682
| 95> H 8.43820095 -0.72600295 0.25955074
| 96> H 5.78530229 -2.60102697 4.01832915
| 97> H 3.45744085 0.75598131 -1.30520277
| 98> H 8.41371056 0.72484692 -2.11422468
| 99> H 6.86286292 1.89319927 -3.68094375
|100> H 4.42913265 1.90992497 -3.26172046
|101> S -2.23661725 0.11862337 -0.15044592
|102> C -1.11912016 -0.12013842 1.20096736
|103> N -1.71003498 -0.07440363 2.38686289
|104> N -3.05481515 0.15820738 2.31239038
|105> C -3.51818241 0.27322655 1.07371308
|106> C 0.29499133 -0.35176459 1.01065601
|107> N 0.87862115 -0.40734432 -0.17906801
|108> N 2.22570340 -0.63611354 -0.11045247
|109> C 2.69160704 -0.75183763 1.12367042
|110> S 1.41584397 -0.59206652 2.35733174
|111> C -7.57492304 1.55979723 0.46479621
|112> C -6.98604489 0.74248130 -0.53435919
|113> C -5.65124320 0.24820122 -0.37200357
|114> C -4.92144450 0.63145166 0.80877361
|115> C -5.55383797 1.41307942 1.77546730
|116> C -6.87326800 1.87282744 1.61089312
|117> C -5.13282392 -0.62933259 -1.36782543
|118> C -5.87350692 -0.96140718 -2.48480819
|119> C -7.17302523 -0.44516167 -2.67911620
|120> C -7.71869616 0.38591816 -1.71040903
|121> O -8.97734429 0.88004990 -1.85129490
|122> H -7.74535181 -0.71021821 -3.56422354
|123> H -4.99916455 1.68795518 2.66887484
|124> H -7.32656598 2.48881072 2.38270775
|125> H -5.45583628 -1.63529970 -3.22735205
|126> H -4.14971381 -1.07163300 -1.24521358
|127> H -9.37182933 0.56754061 -2.67643994
|128> H 7.75413066 -2.02332440 2.59028685
|129> H -8.58722567 1.92358476 0.31462546
|130> *
|131> 
|132>                          ****END OF INPUT****
================================================================================


                 $$$$$$$$$$$$$$$$$$$$$$$$$$$$$$$$$$$$$$$$$$$$$$ 
                 $ THERE ARE  2 JOBS TO BE PROCESSED THIS RUN $
                 $$$$$$$$$$$$$$$$$$$$$$$$$$$$$$$$$$$$$$$$$$$$$$ 




                 $$$$$$$$$$$$$$$$  JOB NUMBER  1 $$$$$$$$$$$$$$


                       ****************************
                       * Single Point Calculation *
                       ****************************

---------------------------------
CARTESIAN COORDINATES (ANGSTROEM)
---------------------------------
  C      5.082713    1.388690   -2.567580
  C      4.531535    0.740685   -1.465162
  C      5.383695    0.065994   -0.570265
  C      6.783710    0.083308   -0.825855
  C      7.341069    0.729553   -1.939834
  C      6.468149    1.381190   -2.807314
  C      5.197341   -0.677992    0.665971
  C      6.503732   -1.053699    1.099130
  N      7.435978   -0.603235    0.183277
  C      6.745692   -1.751239    2.291679
  C      5.643297   -2.067829    3.082728
  C      4.348551   -1.711105    2.686070
  C      4.086203   -1.033924    1.479454
  H      3.511402   -1.989229    3.322307
  H      8.438201   -0.726003    0.259551
  H      5.785302   -2.601027    4.018329
  H      3.457441    0.755981   -1.305203
  H      8.413711    0.724847   -2.114225
  H      6.862863    1.893199   -3.680944
  H      4.429133    1.909925   -3.261720
  S     -2.236617    0.118623   -0.150446
  C     -1.119120   -0.120138    1.200967
  N     -1.710035   -0.074404    2.386863
  N     -3.054815    0.158207    2.312390
  C     -3.518182    0.273227    1.073713
  C      0.294991   -0.351765    1.010656
  N      0.878621   -0.407344   -0.179068
  N      2.225703   -0.636114   -0.110452
  C      2.691607   -0.751838    1.123670
  S      1.415844   -0.592067    2.357332
  C     -7.574923    1.559797    0.464796
  C     -6.986045    0.742481   -0.534359
  C     -5.651243    0.248201   -0.372004
  C     -4.921444    0.631452    0.808774
  C     -5.553838    1.413079    1.775467
  C     -6.873268    1.872827    1.610893
  C     -5.132824   -0.629333   -1.367825
  C     -5.873507   -0.961407   -2.484808
  C     -7.173025   -0.445162   -2.679116
  C     -7.718696    0.385918   -1.710409
  O     -8.977344    0.880050   -1.851295
  H     -7.745352   -0.710218   -3.564224
  H     -4.999165    1.687955    2.668875
  H     -7.326566    2.488811    2.382708
  H     -5.455836   -1.635300   -3.227352
  H     -4.149714   -1.071633   -1.245214
  H     -9.371829    0.567541   -2.676440
  H      7.754131   -2.023324    2.590287
  H     -8.587226    1.923585    0.314625

----------------------------
CARTESIAN COORDINATES (A.U.)
----------------------------
  NO LB      ZA    FRAG     MASS         X           Y           Z
   0 C     6.0000    0    12.011    9.604935    2.624243   -4.852023
   1 C     6.0000    0    12.011    8.563361    1.399692   -2.768754
   2 C     6.0000    0    12.011   10.173710    0.124711   -1.077644
   3 C     6.0000    0    12.011   12.819353    0.157429   -1.560641
   4 C     6.0000    0    12.011   13.872611    1.378655   -3.665755
   5 C     6.0000    0    12.011   12.223031    2.610071   -5.305055
   6 C     6.0000    0    12.011    9.821551   -1.281219    1.258503
   7 C     6.0000    0    12.011   12.290272   -1.991202    2.077055
   8 N     7.0000    0    14.007   14.051962   -1.139949    0.346343
   9 C     6.0000    0    12.011   12.747511   -3.309362    4.330647
  10 C     6.0000    0    12.011   10.664286   -3.907631    5.825512
  11 C     6.0000    0    12.011    8.217570   -3.233519    5.075937
  12 C     6.0000    0    12.011    7.721805   -1.953834    2.795762
  13 H     1.0000    0     1.008    6.635588   -3.759099    6.278250
  14 H     1.0000    0     1.008   15.945889   -1.371947    0.490480
  15 H     1.0000    0     1.008   10.932637   -4.915229    7.593542
  16 H     1.0000    0     1.008    6.533616    1.428598   -2.466476
  17 H     1.0000    0     1.008   15.899609    1.369762   -3.995306
  18 H     1.0000    0     1.008   12.968931    3.577628   -6.955976
  19 H     1.0000    0     1.008    8.369848    3.609235   -6.163758
  20 S    16.0000    0    32.060   -4.226594    0.224166   -0.284302
  21 C     6.0000    0    12.011   -2.114831   -0.227029    2.269499
  22 N     7.0000    0    14.007   -3.231498   -0.140602    4.510517
  23 N     7.0000    0    14.007   -5.772764    0.298969    4.369785
  24 C     6.0000    0    12.011   -6.648401    0.516323    2.029024
  25 C     6.0000    0    12.011    0.557453   -0.664739    1.909863
  26 N     7.0000    0    14.007    1.660353   -0.769769   -0.338389
  27 N     7.0000    0    14.007    4.205970   -1.202080   -0.208725
  28 C     6.0000    0    12.011    5.086400   -1.420767    2.123429
  29 S    16.0000    0    32.060    2.675557   -1.118844    4.454711
  30 C     6.0000    0    12.011  -14.314530    2.947590    0.878338
  31 C     6.0000    0    12.011  -13.201712    1.403086   -1.009793
  32 C     6.0000    0    12.011  -10.679302    0.469032   -0.702985
  33 C     6.0000    0    12.011   -9.300182    1.193271    1.528361
  34 C     6.0000    0    12.011  -10.495233    2.670333    3.355147
  35 C     6.0000    0    12.011  -12.988594    3.539131    3.044147
  36 C     6.0000    0    12.011   -9.699632   -1.189266   -2.584815
  37 C     6.0000    0    12.011  -11.099320   -1.816796   -4.695607
  38 C     6.0000    0    12.011  -13.555053   -0.841234   -5.062796
  39 C     6.0000    0    12.011  -14.586222    0.729280   -3.232205
  40 O     8.0000    0    15.999  -16.964722    1.663053   -3.498440
  41 H     1.0000    0     1.008  -14.636594   -1.342118   -6.735406
  42 H     1.0000    0     1.008   -9.447052    3.189773    5.043443
  43 H     1.0000    0     1.008  -13.845203    4.703171    4.502665
  44 H     1.0000    0     1.008  -10.310036   -3.090269   -6.098812
  45 H     1.0000    0     1.008   -7.841823   -2.025093   -2.353113
  46 H     1.0000    0     1.008  -17.710191    1.072496   -5.057739
  47 H     1.0000    0     1.008   14.653183   -3.823529    4.894933
  48 H     1.0000    0     1.008  -16.227505    3.635048    0.594556

--------------------------------
INTERNAL COORDINATES (ANGSTROEM)
--------------------------------
 C      0   0   0     0.000000000000     0.00000000     0.00000000
 C      1   0   0     1.392491630955     0.00000000     0.00000000
 C      2   1   0     1.407915099248   119.11996871     0.00000000
 C      3   2   1     1.423259011242   118.38564327     0.48286777
 C      4   3   2     1.403292723982   122.60557968   359.15370460
 C      5   4   3     1.392531063165   117.45454203     0.54079772
 C      3   2   1     1.454827051819   135.04402215   178.50477480
 C      7   3   2     1.426688588774   105.98411962   182.61258244
 N      8   7   3     1.382312454220   109.30331659   358.72667316
 C      8   7   3     1.402597859818   123.16636297   177.69684096
 C     10   8   7     1.393291810255   117.33819642   359.22476841
 C     11  10   8     1.400342183934   120.85372082     0.65194662
 C     12  11  10     1.408305081287   122.50831890     0.59049167
 H     12  11  10     1.087643630526   118.73850330   179.04650429
 H      9   8   7     1.012591218334   125.31619199   179.08942793
 H     11  10   8     1.086192472984   119.81106682   180.44920780
 H      2   1   3     1.086047769326   120.10022718   180.22462389
 H      5   4   3     1.086735137308   121.15952945   180.23003243
 H      6   5   4     1.086821578693   119.57384445   179.98051885
 H      1   2   3     1.086592839535   119.39935127   179.93664575
 S     17   2   1     5.844825589569   172.32682367   145.98053339
 C     21  17   2     1.769781001108    63.28400485    55.02178062
 N     22  21  17     1.325752693222   113.38788763   163.39019422
 N     23  22  21     1.366780063633   113.30822831   359.50330801
 C     24  23  22     1.327501442802   114.14336796     0.99442702
 C     22  21  17     1.445538100057   122.60132881   342.92591011
 N     26  22  21     1.326331827615   123.72969487   359.93805425
 N     27  26  22     1.368091384599   113.28433637   179.96056803
 C     28  27  26     1.324204506258   114.06604378   359.69126710
 S     26  22  21     1.768499697463   122.78778942   180.04365321
 C     25  24  23     4.299207881494   119.17329502   188.66192612
 C     31  25  24     1.418835550136    62.33624978   207.06956912
 C     32  31  25     1.432608703191   120.37443078     1.85243091
 C     33  32  31     1.440042287952   118.24819399   358.44028614
 C     34  33  32     1.394761680857   119.18742793     2.91040294
 C     31  25  24     1.379799200841    58.02197212    24.35473157
 C     33  32  31     1.424950986674   118.18068127   176.54134397
 C     37  33  32     1.380773452073   121.21709786     2.23013828
 C     38  37  33     1.411741076604   121.14333651   359.87097533
 C     39  38  37     1.388108075363   118.99552908   358.54114269
 O     40  39  38     1.359488918673   120.61313956   181.30838128
 H     39  38  37     1.086842990911   120.50698659   179.74870465
 H     35  34  33     1.086920566932   118.68766089   179.29554534
 H     36  31  25     1.086559838662   120.42985523   177.94406468
 H     38  37  33     1.086255621874   119.73099533   180.19993351
 H     37  33  32     1.084974104221   120.11474217   183.84944272
 H     41  40  39     0.966511686508   110.41572454     0.00000000
 H     10   8   7     1.086344811921   121.22533886   179.87934832
 H     31  25  24     1.086116584831   177.84191048    83.46217009

---------------------------
INTERNAL COORDINATES (A.U.)
---------------------------
 C      0   0   0     0.000000000000     0.00000000     0.00000000
 C      1   0   0     2.631427826283     0.00000000     0.00000000
 C      2   1   0     2.660573957392   119.11996871     0.00000000
 C      3   2   1     2.689569748883   118.38564327     0.48286777
 C      4   3   2     2.651838934050   122.60557968   359.15370460
 C      5   4   3     2.631502342359   117.45454203     0.54079772
 C      3   2   1     2.749224700157   135.04402215   178.50477480
 C      7   3   2     2.696050711174   105.98411962   182.61258244
 N      8   7   3     2.612191969984   109.30331659   358.72667316
 C      8   7   3     2.650525831081   123.16636297   177.69684096
 C     10   8   7     2.632939946018   117.33819642   359.22476841
 C     11  10   8     2.646263221412   120.85372082     0.65194662
 C     12  11  10     2.661310916642   122.50831890     0.59049167
 H     12  11  10     2.055348592999   118.73850330   179.04650429
 H      9   8   7     1.913520088266   125.31619199   179.08942793
 H     11  10   8     2.052606302667   119.81106682   180.44920780
 H      2   1   3     2.052332852382   120.10022718   180.22462389
 H      5   4   3     2.053631789621   121.15952945   180.23003243
 H      6   5   4     2.053795140165   119.57384445   179.98051885
 H      1   2   3     2.053362885802   119.39935127   179.93664575
 S     17   2   1    11.045119664820   172.32682367   145.98053339
 C     21  17   2     3.344401409111    63.28400485    55.02178062
 N     22  21  17     2.505309511499   113.38788763   163.39019422
 N     23  22  21     2.582840005570   113.30822831   359.50330801
 C     24  23  22     2.508614169282   114.14336796     0.99442702
 C     22  21  17     2.731671125257   122.60132881   342.92591011
 N     26  22  21     2.506403916896   123.72969487   359.93805425
 N     27  26  22     2.585318043069   113.28433637   179.96056803
 C     28  27  26     2.502383862132   114.06604378   359.69126710
 S     26  22  21     3.341980096128   122.78778942   180.04365321
 C     25  24  23     8.124325488819   119.17329502   188.66192612
 C     31  25  24     2.681210618828    62.33624978   207.06956912
 C     32  31  25     2.707238106102   120.37443078     1.85243091
 C     33  32  31     2.721285545495   118.24819399   358.44028614
 C     34  33  32     2.635717598907   119.18742793     2.91040294
 C     31  25  24     2.607442609393    58.02197212    24.35473157
 C     33  32  31     2.692767119074   118.18068127   176.54134397
 C     37  33  32     2.609283677407   121.21709786     2.23013828
 C     38  37  33     2.667804006788   121.14333651   359.87097533
 C     39  38  37     2.623144106721   118.99552908   358.54114269
 O     40  39  38     2.569061738392   120.61313956   181.30838128
 H     39  38  37     2.053835603394   120.50698659   179.74870465
 H     35  34  33     2.053982200827   118.68766089   179.29554534
 H     36  31  25     2.053300523189   120.42985523   177.94406468
 H     38  37  33     2.052725636775   119.73099533   180.19993351
 H     37  33  32     2.050303919375   120.11474217   183.84944272
 H     41  40  39     1.826442392735   110.41572454     0.00000000
 H     10   8   7     2.052894181538   121.22533886   179.87934832
 H     31  25  24     2.052462894840   177.84191048    83.46217009

---------------------
BASIS SET INFORMATION
---------------------
There are 5 groups of distinct atoms

 Group   1 Type C   : 11s6p2d1f contracted to 5s3p2d1f pattern {62111/411/11/1}
 Group   2 Type N   : 11s6p2d1f contracted to 5s3p2d1f pattern {62111/411/11/1}
 Group   3 Type H   : 5s1p contracted to 3s1p pattern {311/1}
 Group   4 Type S   : 14s9p3d1f contracted to 5s5p2d1f pattern {73211/51111/21/1}
 Group   5 Type O   : 11s6p2d1f contracted to 5s3p2d1f pattern {62111/411/11/1}

Atom   0C    basis set group =>   1
Atom   1C    basis set group =>   1
Atom   2C    basis set group =>   1
Atom   3C    basis set group =>   1
Atom   4C    basis set group =>   1
Atom   5C    basis set group =>   1
Atom   6C    basis set group =>   1
Atom   7C    basis set group =>   1
Atom   8N    basis set group =>   2
Atom   9C    basis set group =>   1
Atom  10C    basis set group =>   1
Atom  11C    basis set group =>   1
Atom  12C    basis set group =>   1
Atom  13H    basis set group =>   3
Atom  14H    basis set group =>   3
Atom  15H    basis set group =>   3
Atom  16H    basis set group =>   3
Atom  17H    basis set group =>   3
Atom  18H    basis set group =>   3
Atom  19H    basis set group =>   3
Atom  20S    basis set group =>   4
Atom  21C    basis set group =>   1
Atom  22N    basis set group =>   2
Atom  23N    basis set group =>   2
Atom  24C    basis set group =>   1
Atom  25C    basis set group =>   1
Atom  26N    basis set group =>   2
Atom  27N    basis set group =>   2
Atom  28C    basis set group =>   1
Atom  29S    basis set group =>   4
Atom  30C    basis set group =>   1
Atom  31C    basis set group =>   1
Atom  32C    basis set group =>   1
Atom  33C    basis set group =>   1
Atom  34C    basis set group =>   1
Atom  35C    basis set group =>   1
Atom  36C    basis set group =>   1
Atom  37C    basis set group =>   1
Atom  38C    basis set group =>   1
Atom  39C    basis set group =>   1
Atom  40O    basis set group =>   5
Atom  41H    basis set group =>   3
Atom  42H    basis set group =>   3
Atom  43H    basis set group =>   3
Atom  44H    basis set group =>   3
Atom  45H    basis set group =>   3
Atom  46H    basis set group =>   3
Atom  47H    basis set group =>   3
Atom  48H    basis set group =>   3
-------------------------------
AUXILIARY BASIS SET INFORMATION
-------------------------------
There are 5 groups of distinct atoms

 Group   1 Type C   : 12s5p4d2f1g contracted to 6s4p3d1f1g pattern {711111/2111/211/2/1}
 Group   2 Type N   : 12s5p4d2f1g contracted to 6s4p3d1f1g pattern {711111/2111/211/2/1}
 Group   3 Type H   : 5s2p1d contracted to 3s1p1d pattern {311/2/1}
 Group   4 Type S   : 14s5p5d2f1g contracted to 8s4p3d1f1g pattern {71111111/2111/311/2/1}
 Group   5 Type O   : 12s5p4d2f1g contracted to 6s4p3d1f1g pattern {711111/2111/211/2/1}

Atom   0C    basis set group =>   1
Atom   1C    basis set group =>   1
Atom   2C    basis set group =>   1
Atom   3C    basis set group =>   1
Atom   4C    basis set group =>   1
Atom   5C    basis set group =>   1
Atom   6C    basis set group =>   1
Atom   7C    basis set group =>   1
Atom   8N    basis set group =>   2
Atom   9C    basis set group =>   1
Atom  10C    basis set group =>   1
Atom  11C    basis set group =>   1
Atom  12C    basis set group =>   1
Atom  13H    basis set group =>   3
Atom  14H    basis set group =>   3
Atom  15H    basis set group =>   3
Atom  16H    basis set group =>   3
Atom  17H    basis set group =>   3
Atom  18H    basis set group =>   3
Atom  19H    basis set group =>   3
Atom  20S    basis set group =>   4
Atom  21C    basis set group =>   1
Atom  22N    basis set group =>   2
Atom  23N    basis set group =>   2
Atom  24C    basis set group =>   1
Atom  25C    basis set group =>   1
Atom  26N    basis set group =>   2
Atom  27N    basis set group =>   2
Atom  28C    basis set group =>   1
Atom  29S    basis set group =>   4
Atom  30C    basis set group =>   1
Atom  31C    basis set group =>   1
Atom  32C    basis set group =>   1
Atom  33C    basis set group =>   1
Atom  34C    basis set group =>   1
Atom  35C    basis set group =>   1
Atom  36C    basis set group =>   1
Atom  37C    basis set group =>   1
Atom  38C    basis set group =>   1
Atom  39C    basis set group =>   1
Atom  40O    basis set group =>   5
Atom  41H    basis set group =>   3
Atom  42H    basis set group =>   3
Atom  43H    basis set group =>   3
Atom  44H    basis set group =>   3
Atom  45H    basis set group =>   3
Atom  46H    basis set group =>   3
Atom  47H    basis set group =>   3
Atom  48H    basis set group =>   3
-------------------------
ECP PARAMETER INFORMATION
-------------------------



--------------------------------------------------------------------------
[[42877,1],21]: A high-performance Open MPI point-to-point messaging module
was unable to find any relevant network interfaces:

Module: OpenFabrics (openib)
  Host: cx1-136-19-1

Another transport will be used instead, although this may result in
lower performance.
--------------------------------------------------------------------------


           ************************************************************
           *        Program running with 24 parallel MPI-processes    *
           *              working on a common directory               *
           ************************************************************
------------------------------------------------------------------------------
                           ORCA GTO INTEGRAL CALCULATION
                           -- RI-GTO INTEGRALS CHOSEN --
------------------------------------------------------------------------------

                         BASIS SET STATISTICS AND STARTUP INFO

Gaussian basis set:
 # of primitive gaussian shells          ...  784
 # of primitive gaussian functions       ... 1718
 # of contracted shells                  ...  438
 # of contracted basis functions         ... 1156
 Highest angular momentum                ...    3
 Maximum contraction depth               ...    7
Auxiliary gaussian basis set:
 # of primitive gaussian shells          ...  942
 # of primitive gaussian functions       ... 2634
 # of contracted shells                  ...  589
 # of contracted aux-basis functions     ... 1835
 Highest angular momentum                ...    4
 Maximum contraction depth               ...    7
Ratio of auxiliary to basis functions    ...  1.59
Integral package used                  ... LIBINT
 One Electron integrals                  
   ECP integrals                         ... done
 Ordering auxiliary basis shells         ... done
 Integral threshhold             Thresh  ...  2.500e-11
 Primitive cut-off               TCut    ...  2.500e-12
 Pre-screening matrix                    ... done
 Shell pair data                         ... 
 Ordering of the shell pairs             ... done (   0.016 sec) 46501 of 96141 pairs
 Determination of significant pairs      ... done (   0.000 sec)
 Creation of shell pair data             ... done (   0.011 sec)
 Storage of shell pair data              ... done (   0.118 sec)
 Shell pair data done in (   0.145 sec)
 Computing two index integrals           ... done
 Cholesky decomposition of the V-matrix  ... done


Timings:
 Total evaluation time                   ...   6.074 sec (  0.101 min)
 One electron matrix time                ...   1.724 sec (  0.029 min) = 28.4%
 Schwartz matrix evaluation time         ...   3.038 sec (  0.051 min) = 50.0%
 Two index repulsion integral time       ...   0.444 sec (  0.007 min) =  7.3%
 Cholesky decomposition of V             ...   0.671 sec (  0.011 min) = 11.0%
 Three index repulsion integral time     ...   0.000 sec (  0.000 min) =  0.0%

--------------------------------------------------------------------------
[[42953,1],13]: A high-performance Open MPI point-to-point messaging module
was unable to find any relevant network interfaces:

Module: OpenFabrics (openib)
  Host: cx1-136-19-1

Another transport will be used instead, although this may result in
lower performance.
--------------------------------------------------------------------------


           ************************************************************
           *        Program running with 24 parallel MPI-processes    *
           *              working on a common directory               *
           ************************************************************
-------------------------------------------------------------------------------
                                 ORCA SCF
-------------------------------------------------------------------------------

------------
SCF SETTINGS
------------
Hamiltonian:
 Density Functional     Method          .... DFT(GTOs)
 Exchange Functional    Exchange        .... WB97X-D3
 Correlation Functional Correlation     .... WB97X-D3
 Gradients option       PostSCFGGA      .... off
 Hybrid DFT is turned on
   Fraction HF Exchange ScalHFX         ....  0.195728
   Scaling of DF-GGA-X  ScalDFX         ....  0.000000
   Scaling of DF-GGA-C  ScalDFC         ....  1.000000
   Scaling of DF-LDA-C  ScalLDAC        ....  1.000000
   Perturbative correction              ....  0.000000
 Long-range corrected/Screened/Range-Separated Hybrid DFT is turned on
   Amount of maximum screened exact exchange              ....  0.804272
   Range separation parameter mu (erf(mu*r12)/r12)        ....  0.250000
 RI-approximation to the Coulomb term is turned on
   Number of auxiliary basis functions  .... 1835
   RIJ-COSX (HFX calculated with COS-X)).... on


General Settings:
 Integral files         IntName         .... total
 Hartree-Fock type      HFTyp           .... RHF
 Total Charge           Charge          ....    0
 Multiplicity           Mult            ....    1
 Number of Electrons    NEL             ....  246
 Basis Dimension        Dim             .... 1156
 Nuclear Repulsion      ENuc            ....   3312.6393615845 Eh

Convergence Acceleration:
 DIIS                   CNVDIIS         .... on
   Start iteration      DIISMaxIt       ....    12
   Startup error        DIISStart       ....  0.200000
   # of expansion vecs  DIISMaxEq       ....     5
   Bias factor          DIISBfac        ....   1.050
   Max. coefficient     DIISMaxC        ....  10.000
 Newton-Raphson         CNVNR           .... off
 SOSCF                  CNVSOSCF        .... on
   Start iteration      SOSCFMaxIt      ....   150
   Startup grad/error   SOSCFStart      ....  0.003300
 Level Shifting         CNVShift        .... on
   Level shift para.    LevelShift      ....    0.2500
   Turn off err/grad.   ShiftErr        ....    0.0010
 Zerner damping         CNVZerner       .... off
 Static damping         CNVDamp         .... on
   Fraction old density DampFac         ....    0.7000
   Max. Damping (<1)    DampMax         ....    0.9800
   Min. Damping (>=0)   DampMin         ....    0.0000
   Turn off err/grad.   DampErr         ....    0.1000
 Fernandez-Rico         CNVRico         .... off

SCF Procedure:
 Maximum # iterations   MaxIter         ....   125
 SCF integral mode      SCFMode         .... Direct
   Integral package                     .... LIBINT
 Reset frequeny         DirectResetFreq ....    20
 Integral Threshold     Thresh          ....  2.500e-11 Eh
 Primitive CutOff       TCut            ....  2.500e-12 Eh

Convergence Tolerance:
 Convergence Check Mode ConvCheckMode   .... Total+1el-Energy
 Convergence forced     ConvForced      .... 1
 Energy Change          TolE            ....  1.000e-08 Eh
 1-El. energy change                    ....  1.000e-05 Eh
 Orbital Gradient       TolG            ....  1.000e-05
 Orbital Rotation angle TolX            ....  1.000e-05
 DIIS Error             TolErr          ....  5.000e-07


Diagonalization of the overlap matrix:
Smallest eigenvalue                        ... 5.486e-06
Time for diagonalization                   ...    0.603 sec
Threshold for overlap eigenvalues          ... 1.000e-08
Number of eigenvalues below threshold      ... 0
Time for construction of square roots      ...    0.484 sec
Total time needed                          ...    1.098 sec

-------------------
DFT GRID GENERATION
-------------------

General Integration Accuracy     IntAcc      ...  5.010
Radial Grid Type                 RadialGrid  ... Gauss-Chebyshev
Angular Grid (max. acc.)         AngularGrid ... Lebedev-434
Angular grid pruning method      GridPruning ... 3 (G Style)
Weight generation scheme         WeightScheme... Becke
Basis function cutoff            BFCut       ...    1.0000e-11
Integration weight cutoff        WCut        ...    1.0000e-14
Grids for H and He will be reduced by one unit

# of grid points (after initial pruning)     ... 465800 (   0.0 sec)
# of grid points (after weights+screening)   ... 409834 (   1.6 sec)
nearest neighbour list constructed           ...    0.0 sec
Grid point re-assignment to atoms done       ...    0.2 sec
Grid point division into batches done        ...    5.2 sec
Reduced shell lists constructed in    6.2 sec

Total number of grid points                  ...   409834
Total number of batches                      ...     6425
Average number of points per batch           ...       63
Average number of grid points per atom       ...     8364
Average number of shells per batch           ...   131.58 (30.04%)
Average number of basis functions per batch  ...   345.22 (29.86%)
Average number of large shells per batch     ...    91.26 (69.36%)
Average number of large basis fcns per batch ...   237.35 (68.75%)
Maximum spatial batch extension              ...  18.06, 15.58, 16.92 au
Average spatial batch extension              ...   0.06,  0.07,  0.06 au

Time for grid setup =    8.218 sec

------------------------------
INITIAL GUESS: MODEL POTENTIAL
------------------------------
Loading Hartree-Fock densities                     ... done
Calculating cut-offs                               ... done
Setting up the integral package                    ... done
Initializing the effective Hamiltonian             ... done
Starting the Coulomb interaction                   ... done (   0.6 sec)
Reading the grid                                   ... done
Mapping shells                                     ... done
Starting the XC term evaluation                    ... done (   2.3 sec)
  promolecular density results
     # of electrons  =    245.992664144
     EX              =   -228.053346800
     EC              =     -8.502205188
     EX+EC           =   -236.555551988
Transforming the Hamiltonian                       ... done (   0.3 sec)
Diagonalizing the Hamiltonian                      ... done (   0.5 sec)
Back transforming the eigenvectors                 ... done (   0.1 sec)
Now organizing SCF variables                       ... done
                      ------------------
                      INITIAL GUESS DONE (  12.3 sec)
                      ------------------
--------------------
COSX GRID GENERATION
--------------------

General Integration Accuracy     IntAcc      ...  3.340
Radial Grid Type                 RadialGrid  ... Gauss-Chebyshev
Angular Grid (max. acc.)         AngularGrid ... Lebedev-50
Angular grid pruning method      GridPruning ... 3 (G Style)
Weight generation scheme         WeightScheme... Becke
Basis function cutoff            BFCut       ...    1.0000e-11
Integration weight cutoff        WCut        ...    1.0000e-14
Grids for H and He will be reduced by one unit

# of grid points (after initial pruning)     ...  24702 (   0.0 sec)
# of grid points (after weights+screening)   ...  22593 (   0.1 sec)
nearest neighbour list constructed           ...    0.0 sec
Grid point re-assignment to atoms done       ...    0.0 sec
Grid point division into batches done        ...    0.0 sec
Reduced shell lists constructed in    0.1 sec

Total number of grid points                  ...    22593
Total number of batches                      ...      375
Average number of points per batch           ...       60
Average number of grid points per atom       ...      461
Average number of shells per batch           ...   143.94 (32.86%)
Average number of basis functions per batch  ...   383.47 (33.17%)
Average number of large shells per batch     ...   102.00 (70.86%)
Average number of large basis fcns per batch ...   270.94 (70.66%)
Maximum spatial batch extension              ...   9.20, 13.87, 10.84 au
Average spatial batch extension              ...   0.13,  0.23,  0.18 au

Overlap Fitting                  UseSFitting ... on
Constructing numerical overlap ... done (      0.1 sec)
Inverting numerical overlap    ... done (      0.2 sec)
Obtaining analytic overlap     ... done (      0.0 sec)
Final contraction and storage  ... done (      0.6 sec)


General Integration Accuracy     IntAcc      ...  3.670
Radial Grid Type                 RadialGrid  ... Gauss-Chebyshev
Angular Grid (max. acc.)         AngularGrid ... Lebedev-50
Angular grid pruning method      GridPruning ... 3 (G Style)
Weight generation scheme         WeightScheme... Becke
Basis function cutoff            BFCut       ...    1.0000e-11
Integration weight cutoff        WCut        ...    1.0000e-14
Grids for H and He will be reduced by one unit

# of grid points (after initial pruning)     ...  30896 (   0.0 sec)
# of grid points (after weights+screening)   ...  28180 (   0.1 sec)
nearest neighbour list constructed           ...    0.0 sec
Grid point re-assignment to atoms done       ...    0.0 sec
Grid point division into batches done        ...    0.0 sec
Reduced shell lists constructed in    0.1 sec

Total number of grid points                  ...    28180
Total number of batches                      ...      462
Average number of points per batch           ...       60
Average number of grid points per atom       ...      575
Average number of shells per batch           ...   143.24 (32.70%)
Average number of basis functions per batch  ...   381.33 (32.99%)
Average number of large shells per batch     ...   101.90 (71.14%)
Average number of large basis fcns per batch ...   269.24 (70.60%)
Maximum spatial batch extension              ...  10.39, 14.51, 11.77 au
Average spatial batch extension              ...   0.12,  0.20,  0.17 au

Overlap Fitting                  UseSFitting ... on
Constructing numerical overlap ... done (      0.2 sec)
Inverting numerical overlap    ... done (      0.2 sec)
Obtaining analytic overlap     ... done (      0.0 sec)
Final contraction and storage  ... done (      0.6 sec)


General Integration Accuracy     IntAcc      ...  4.010
Radial Grid Type                 RadialGrid  ... Gauss-Chebyshev
Angular Grid (max. acc.)         AngularGrid ... Lebedev-110
Angular grid pruning method      GridPruning ... 3 (G Style)
Weight generation scheme         WeightScheme... Becke
Basis function cutoff            BFCut       ...    1.0000e-11
Integration weight cutoff        WCut        ...    1.0000e-14
Grids for H and He will be reduced by one unit

# of grid points (after initial pruning)     ...  60214 (   0.0 sec)
# of grid points (after weights+screening)   ...  54439 (   0.2 sec)
nearest neighbour list constructed           ...    0.0 sec
Grid point re-assignment to atoms done       ...    0.0 sec
Grid point division into batches done        ...    0.1 sec
Reduced shell lists constructed in    0.2 sec

Total number of grid points                  ...    54439
Total number of batches                      ...      876
Average number of points per batch           ...       62
Average number of grid points per atom       ...     1111
Average number of shells per batch           ...   141.45 (32.29%)
Average number of basis functions per batch  ...   376.66 (32.58%)
Average number of large shells per batch     ...   101.13 (71.50%)
Average number of large basis fcns per batch ...   266.45 (70.74%)
Maximum spatial batch extension              ...  10.52, 15.67, 10.57 au
Average spatial batch extension              ...   0.10,  0.16,  0.13 au

Overlap Fitting                  UseSFitting ... on
Constructing numerical overlap ... done (      0.2 sec)
Inverting numerical overlap    ... done (      0.2 sec)
Obtaining analytic overlap     ... done (      0.0 sec)
Final contraction and storage  ... done (      0.6 sec)

Time for X-Grid setup             =    4.154 sec
--------------
SCF ITERATIONS
--------------
ITER       Energy         Delta-E        Max-DP      RMS-DP      [F,P]     Damp
               ***  Starting incremental Fock matrix formation  ***
  0  -2144.5478924514   0.000000000000 0.07096398  0.00060262  0.2026804 0.7000
  1  -2144.8260399337  -0.278147482348 0.05972298  0.00049591  0.1073404 0.7000
                               ***Turning on DIIS***
  2  -2144.9645364076  -0.138496473913 0.09915765  0.00105350  0.0551991 0.0000
  3  -2145.1911321121  -0.226595704466 0.04956042  0.00033590  0.0422163 0.0000
  4  -2145.2280040055  -0.036871893435 0.01340947  0.00011487  0.0090492 0.0000
  5  -2145.2296446934  -0.001640687841 0.00715463  0.00005101  0.0047539 0.0000
                      *** Initiating the SOSCF procedure ***
                           *** Shutting down DIIS ***
                      *** Re-Reading the Fockian *** 
                      *** Removing any level shift *** 
ITER      Energy       Delta-E        Grad      Rot      Max-DP    RMS-DP
  6  -2145.23008070  -0.0004360111  0.002692  0.002692  0.002436  0.000030
               *** Restarting incremental Fock matrix formation ***
  7  -2145.23023593  -0.0001552266  0.001634  0.004550  0.011987  0.000095
  8  -2145.23029820  -0.0000622669  0.000585  0.004614  0.006559  0.000057
  9  -2145.23031328  -0.0000150777  0.000223  0.000800  0.005845  0.000046
 10  -2145.23032025  -0.0000069763  0.000068  0.000206  0.000738  0.000006
 11  -2145.23032044  -0.0000001865  0.000051  0.000099  0.000598  0.000005
 12  -2145.23032078  -0.0000003399  0.000010  0.000040  0.000226  0.000002
 13  -2145.23032077   0.0000000084  0.000007  0.000014  0.000128  0.000001
                  ***Gradient check signals convergence***
              ***Rediagonalizing the Fockian in SOSCF/NRSCF***

               *****************************************************
               *                     SUCCESS                       *
               *           SCF CONVERGED AFTER  14 CYCLES          *
               *****************************************************

Old exchange energy                            =    -71.657549786 Eh
New exchange energy                            =    -71.657950561 Eh
Exchange energy change after final integration =     -0.000400775 Eh
Total energy after final integration           =  -2145.230721594 Eh
Final COS-X integration done in                =    51.738 sec

----------------
TOTAL SCF ENERGY
----------------

Total Energy       :        -2145.23072159 Eh          -58374.69565 eV

Components:
Nuclear Repulsion  :         3312.63936158 Eh           90141.49973 eV
Electronic Energy  :        -5457.87008318 Eh         -148516.19538 eV
One Electron Energy:        -9518.79234023 Eh         -259019.50788 eV
Two Electron Energy:         4060.92225706 Eh          110503.31249 eV

Virial components:
Potential Energy   :        -4281.80943102 Eh         -116513.95807 eV
Kinetic Energy     :         2136.57870942 Eh           58139.26243 eV
Virial Ratio       :            2.00404947


DFT components:
N(Alpha)           :      122.999989847079 electrons
N(Beta)            :      122.999989847079 electrons
N(Total)           :      245.999979694158 electrons
E(XC)              :     -169.250245254002 Eh       

---------------
SCF CONVERGENCE
---------------

  Last Energy change         ...   -4.9188e-08  Tolerance :   1.0000e-08
  Last MAX-Density change    ...    5.7239e-14  Tolerance :   1.0000e-07
  Last RMS-Density change    ...    1.4010e-16  Tolerance :   5.0000e-09
  Last Orbital Gradient      ...    1.9509e-06  Tolerance :   1.0000e-05
  Last Orbital Rotation      ...    7.8953e-06  Tolerance :   1.0000e-05

             **** THE GBW FILE WAS UPDATED (total.gbw) ****
             **** DENSITY FILE WAS UPDATED (total.scfp.tmp) ****
             **** ENERGY FILE WAS UPDATED (total.en.tmp) ****
----------------
ORBITAL ENERGIES
----------------

  NO   OCC          E(Eh)            E(eV) 
   0   2.0000     -89.007635     -2422.0209 
   1   2.0000     -89.006454     -2421.9888 
   2   2.0000     -19.279477      -524.6212 
   3   2.0000     -14.471745      -393.7962 
   4   2.0000     -14.471378      -393.7862 
   5   2.0000     -14.470734      -393.7687 
   6   2.0000     -14.463281      -393.5659 
   7   2.0000     -14.462736      -393.5510 
   8   2.0000     -10.378023      -282.4004 
   9   2.0000     -10.376602      -282.3617 
  10   2.0000     -10.373872      -282.2874 
  11   2.0000     -10.373756      -282.2842 
  12   2.0000     -10.363572      -282.0071 
  13   2.0000     -10.334767      -281.2233 
  14   2.0000     -10.326067      -280.9866 
  15   2.0000     -10.320632      -280.8387 
  16   2.0000     -10.318261      -280.7742 
  17   2.0000     -10.316872      -280.7363 
  18   2.0000     -10.307155      -280.4720 
  19   2.0000     -10.305029      -280.4141 
  20   2.0000     -10.299890      -280.2743 
  21   2.0000     -10.299371      -280.2601 
  22   2.0000     -10.298753      -280.2433 
  23   2.0000     -10.298656      -280.2407 
  24   2.0000     -10.296005      -280.1685 
  25   2.0000     -10.294768      -280.1349 
  26   2.0000     -10.292793      -280.0811 
  27   2.0000     -10.292096      -280.0622 
  28   2.0000     -10.288954      -279.9767 
  29   2.0000     -10.287205      -279.9291 
  30   2.0000     -10.284453      -279.8542 
  31   2.0000     -10.283497      -279.8282 
  32   2.0000     -10.277413      -279.6626 
  33   2.0000     -10.270834      -279.4836 
  34   2.0000      -8.103810      -220.5159 
  35   2.0000      -8.102702      -220.4857 
  36   2.0000      -6.056914      -164.8170 
  37   2.0000      -6.055793      -164.7865 
  38   2.0000      -6.052952      -164.7092 
  39   2.0000      -6.051876      -164.6799 
  40   2.0000      -6.050908      -164.6536 
  41   2.0000      -6.049791      -164.6232 
  42   2.0000      -1.197364       -32.5819 
  43   2.0000      -1.155063       -31.4309 
  44   2.0000      -1.146986       -31.2111 
  45   2.0000      -1.107956       -30.1490 
  46   2.0000      -1.010607       -27.5000 
  47   2.0000      -0.993250       -27.0277 
  48   2.0000      -0.978485       -26.6259 
  49   2.0000      -0.964411       -26.2430 
  50   2.0000      -0.957098       -26.0440 
  51   2.0000      -0.943730       -25.6802 
  52   2.0000      -0.934164       -25.4199 
  53   2.0000      -0.914250       -24.8780 
  54   2.0000      -0.901648       -24.5351 
  55   2.0000      -0.891764       -24.2661 
  56   2.0000      -0.874918       -23.8077 
  57   2.0000      -0.873721       -23.7752 
  58   2.0000      -0.846889       -23.0450 
  59   2.0000      -0.845908       -23.0183 
  60   2.0000      -0.841214       -22.8906 
  61   2.0000      -0.784960       -21.3599 
  62   2.0000      -0.771475       -20.9929 
  63   2.0000      -0.760738       -20.7007 
  64   2.0000      -0.751624       -20.4527 
  65   2.0000      -0.735294       -20.0084 
  66   2.0000      -0.727432       -19.7944 
  67   2.0000      -0.723624       -19.6908 
  68   2.0000      -0.713705       -19.4209 
  69   2.0000      -0.698819       -19.0158 
  70   2.0000      -0.673391       -18.3239 
  71   2.0000      -0.661106       -17.9896 
  72   2.0000      -0.658874       -17.9289 
  73   2.0000      -0.643156       -17.5012 
  74   2.0000      -0.629800       -17.1377 
  75   2.0000      -0.624186       -16.9850 
  76   2.0000      -0.619015       -16.8443 
  77   2.0000      -0.616241       -16.7688 
  78   2.0000      -0.601110       -16.3570 
  79   2.0000      -0.580358       -15.7924 
  80   2.0000      -0.574230       -15.6256 
  81   2.0000      -0.572400       -15.5758 
  82   2.0000      -0.564416       -15.3585 
  83   2.0000      -0.562653       -15.3106 
  84   2.0000      -0.553740       -15.0680 
  85   2.0000      -0.549364       -14.9489 
  86   2.0000      -0.545920       -14.8552 
  87   2.0000      -0.542447       -14.7607 
  88   2.0000      -0.538028       -14.6405 
  89   2.0000      -0.537489       -14.6258 
  90   2.0000      -0.530788       -14.4435 
  91   2.0000      -0.525809       -14.3080 
  92   2.0000      -0.525021       -14.2865 
  93   2.0000      -0.519009       -14.1229 
  94   2.0000      -0.516657       -14.0589 
  95   2.0000      -0.514865       -14.0102 
  96   2.0000      -0.495976       -13.4962 
  97   2.0000      -0.487950       -13.2778 
  98   2.0000      -0.483418       -13.1545 
  99   2.0000      -0.477160       -12.9842 
 100   2.0000      -0.471603       -12.8330 
 101   2.0000      -0.468325       -12.7438 
 102   2.0000      -0.449829       -12.2405 
 103   2.0000      -0.446648       -12.1539 
 104   2.0000      -0.445976       -12.1356 
 105   2.0000      -0.439157       -11.9501 
 106   2.0000      -0.435491       -11.8503 
 107   2.0000      -0.433949       -11.8084 
 108   2.0000      -0.421041       -11.4571 
 109   2.0000      -0.418651       -11.3921 
 110   2.0000      -0.400368       -10.8946 
 111   2.0000      -0.398529       -10.8445 
 112   2.0000      -0.391962       -10.6658 
 113   2.0000      -0.385250       -10.4832 
 114   2.0000      -0.375337       -10.2134 
 115   2.0000      -0.372777       -10.1438 
 116   2.0000      -0.366190        -9.9645 
 117   2.0000      -0.350730        -9.5438 
 118   2.0000      -0.343490        -9.3468 
 119   2.0000      -0.330430        -8.9915 
 120   2.0000      -0.301161        -8.1950 
 121   2.0000      -0.293582        -7.9888 
 122   2.0000      -0.288562        -7.8522 
 123   0.0000      -0.032667        -0.8889 
 124   0.0000      -0.001511        -0.0411 
 125   0.0000       0.020136         0.5479 
 126   0.0000       0.037333         1.0159 
 127   0.0000       0.047276         1.2864 
 128   0.0000       0.058479         1.5913 
 129   0.0000       0.072547         1.9741 
 130   0.0000       0.079420         2.1611 
 131   0.0000       0.085285         2.3207 
 132   0.0000       0.095612         2.6017 
 133   0.0000       0.102493         2.7890 
 134   0.0000       0.103260         2.8099 
 135   0.0000       0.109265         2.9732 
 136   0.0000       0.114437         3.1140 
 137   0.0000       0.120756         3.2859 
 138   0.0000       0.131184         3.5697 
 139   0.0000       0.135879         3.6975 
 140   0.0000       0.139295         3.7904 
 141   0.0000       0.143085         3.8935 
 142   0.0000       0.148013         4.0276 
 143   0.0000       0.149429         4.0662 
 144   0.0000       0.160195         4.3591 
 145   0.0000       0.166225         4.5232 
 146   0.0000       0.167831         4.5669 
 147   0.0000       0.172845         4.7034 
 148   0.0000       0.175641         4.7794 
 149   0.0000       0.182781         4.9737 
 150   0.0000       0.183914         5.0045 
 151   0.0000       0.186825         5.0838 
 152   0.0000       0.192333         5.2337 
 153   0.0000       0.196334         5.3425 
 154   0.0000       0.204794         5.5727 
 155   0.0000       0.210627         5.7314 
 156   0.0000       0.212817         5.7910 
 157   0.0000       0.220209         5.9922 
 158   0.0000       0.225155         6.1268 
 159   0.0000       0.225733         6.1425 
 160   0.0000       0.229823         6.2538 
 161   0.0000       0.242151         6.5893 
 162   0.0000       0.244675         6.6579 
 163   0.0000       0.249038         6.7767 
 164   0.0000       0.255036         6.9399 
 165   0.0000       0.258303         7.0288 
 166   0.0000       0.259462         7.0603 
 167   0.0000       0.264153         7.1880 
 168   0.0000       0.266921         7.2633 
 169   0.0000       0.268809         7.3147 
 170   0.0000       0.272037         7.4025 
 171   0.0000       0.277249         7.5443 
 172   0.0000       0.277985         7.5644 
 173   0.0000       0.279295         7.6000 
 174   0.0000       0.287481         7.8228 
 175   0.0000       0.289704         7.8832 
 176   0.0000       0.291527         7.9329 
 177   0.0000       0.292246         7.9524 
 178   0.0000       0.295156         8.0316 
 179   0.0000       0.296988         8.0814 
 180   0.0000       0.299754         8.1567 
 181   0.0000       0.302927         8.2431 
 182   0.0000       0.304230         8.2785 
 183   0.0000       0.307699         8.3729 
 184   0.0000       0.310112         8.4386 
 185   0.0000       0.312105         8.4928 
 186   0.0000       0.314566         8.5598 
 187   0.0000       0.318222         8.6593 
 188   0.0000       0.319501         8.6941 
 189   0.0000       0.326910         8.8957 
 190   0.0000       0.331508         9.0208 
 191   0.0000       0.333203         9.0669 
 192   0.0000       0.336035         9.1440 
 193   0.0000       0.340933         9.2772 
 194   0.0000       0.341404         9.2901 
 195   0.0000       0.348417         9.4809 
 196   0.0000       0.349236         9.5032 
 197   0.0000       0.351770         9.5721 
 198   0.0000       0.354648         9.6505 
 199   0.0000       0.356660         9.7052 
 200   0.0000       0.362819         9.8728 
 201   0.0000       0.365296         9.9402 
 202   0.0000       0.369403        10.0520 
 203   0.0000       0.370604        10.0847 
 204   0.0000       0.375381        10.2146 
 205   0.0000       0.378911        10.3107 
 206   0.0000       0.380907        10.3650 
 207   0.0000       0.384272        10.4566 
 208   0.0000       0.388513        10.5720 
 209   0.0000       0.390380        10.6228 
 210   0.0000       0.391277        10.6472 
 211   0.0000       0.398283        10.8378 
 212   0.0000       0.401137        10.9155 
 213   0.0000       0.402612        10.9556 
 214   0.0000       0.406306        11.0562 
 215   0.0000       0.407220        11.0810 
 216   0.0000       0.409990        11.1564 
 217   0.0000       0.413217        11.2442 
 218   0.0000       0.417920        11.3722 
 219   0.0000       0.420447        11.4409 
 220   0.0000       0.425710        11.5842 
 221   0.0000       0.430730        11.7207 
 222   0.0000       0.433722        11.8022 
 223   0.0000       0.435023        11.8376 
 224   0.0000       0.437103        11.8942 
 225   0.0000       0.439997        11.9729 
 226   0.0000       0.441123        12.0036 
 227   0.0000       0.444380        12.0922 
 228   0.0000       0.448063        12.1924 
 229   0.0000       0.451368        12.2823 
 230   0.0000       0.454551        12.3690 
 231   0.0000       0.458671        12.4811 
 232   0.0000       0.459270        12.4974 
 233   0.0000       0.462303        12.5799 
 234   0.0000       0.463816        12.6211 
 235   0.0000       0.467471        12.7205 
 236   0.0000       0.469630        12.7793 
 237   0.0000       0.472468        12.8565 
 238   0.0000       0.474436        12.9100 
 239   0.0000       0.477767        13.0007 
 240   0.0000       0.481020        13.0892 
 241   0.0000       0.487440        13.2639 
 242   0.0000       0.490131        13.3371 
 243   0.0000       0.491434        13.3726 
 244   0.0000       0.495390        13.4803 
 245   0.0000       0.497046        13.5253 
 246   0.0000       0.500208        13.6113 
 247   0.0000       0.501663        13.6510 
 248   0.0000       0.506118        13.7722 
 249   0.0000       0.509758        13.8712 
 250   0.0000       0.510515        13.8918 
 251   0.0000       0.514950        14.0125 
 252   0.0000       0.517119        14.0715 
 253   0.0000       0.517761        14.0890 
 254   0.0000       0.522897        14.2287 
 255   0.0000       0.527284        14.3481 
 256   0.0000       0.533357        14.5134 
 257   0.0000       0.537007        14.6127 
 258   0.0000       0.538861        14.6632 
 259   0.0000       0.540274        14.7016 
 260   0.0000       0.542093        14.7511 
 261   0.0000       0.548724        14.9315 
 262   0.0000       0.551260        15.0006 
 263   0.0000       0.552945        15.0464 
 264   0.0000       0.557579        15.1725 
 265   0.0000       0.560308        15.2468 
 266   0.0000       0.563976        15.3466 
 267   0.0000       0.567557        15.4440 
 268   0.0000       0.569803        15.5051 
 269   0.0000       0.572254        15.5718 
 270   0.0000       0.575712        15.6659 
 271   0.0000       0.578467        15.7409 
 272   0.0000       0.582698        15.8560 
 273   0.0000       0.587226        15.9792 
 274   0.0000       0.592164        16.1136 
 275   0.0000       0.593629        16.1535 
 276   0.0000       0.595254        16.1977 
 277   0.0000       0.600686        16.3455 
 278   0.0000       0.603524        16.4227 
 279   0.0000       0.611405        16.6372 
 280   0.0000       0.613325        16.6894 
 281   0.0000       0.621971        16.9247 
 282   0.0000       0.625058        17.0087 
 283   0.0000       0.631023        17.1710 
 284   0.0000       0.635643        17.2967 
 285   0.0000       0.640968        17.4416 
 286   0.0000       0.642077        17.4718 
 287   0.0000       0.643483        17.5101 
 288   0.0000       0.653207        17.7747 
 289   0.0000       0.658277        17.9126 
 290   0.0000       0.660169        17.9641 
 291   0.0000       0.663828        18.0637 
 292   0.0000       0.668276        18.1847 
 293   0.0000       0.674764        18.3613 
 294   0.0000       0.678209        18.4550 
 295   0.0000       0.683296        18.5934 
 296   0.0000       0.685519        18.6539 
 297   0.0000       0.686887        18.6911 
 298   0.0000       0.689440        18.7606 
 299   0.0000       0.694140        18.8885 
 300   0.0000       0.698470        19.0063 
 301   0.0000       0.700012        19.0483 
 302   0.0000       0.704271        19.1642 
 303   0.0000       0.706241        19.2178 
 304   0.0000       0.712380        19.3848 
 305   0.0000       0.716008        19.4836 
 306   0.0000       0.719769        19.5859 
 307   0.0000       0.724866        19.7246 
 308   0.0000       0.728925        19.8351 
 309   0.0000       0.732946        19.9445 
 310   0.0000       0.737124        20.0582 
 311   0.0000       0.742411        20.2020 
 312   0.0000       0.745748        20.2928 
 313   0.0000       0.749050        20.3827 
 314   0.0000       0.749865        20.4049 
 315   0.0000       0.751746        20.4561 
 316   0.0000       0.760067        20.6825 
 317   0.0000       0.761272        20.7153 
 318   0.0000       0.763638        20.7796 
 319   0.0000       0.765507        20.8305 
 320   0.0000       0.766980        20.8706 
 321   0.0000       0.776685        21.1347 
 322   0.0000       0.777750        21.1636 
 323   0.0000       0.784367        21.3437 
 324   0.0000       0.788147        21.4466 
 325   0.0000       0.791535        21.5388 
 326   0.0000       0.794266        21.6131 
 327   0.0000       0.797760        21.7081 
 328   0.0000       0.799930        21.7672 
 329   0.0000       0.805109        21.9081 
 330   0.0000       0.807549        21.9745 
 331   0.0000       0.813020        22.1234 
 332   0.0000       0.814143        22.1539 
 333   0.0000       0.819105        22.2890 
 334   0.0000       0.821137        22.3443 
 335   0.0000       0.822414        22.3790 
 336   0.0000       0.826508        22.4904 
 337   0.0000       0.828477        22.5440 
 338   0.0000       0.833596        22.6833 
 339   0.0000       0.838601        22.8195 
 340   0.0000       0.844124        22.9698 
 341   0.0000       0.847678        23.0665 
 342   0.0000       0.849885        23.1265 
 343   0.0000       0.854758        23.2592 
 344   0.0000       0.860977        23.4284 
 345   0.0000       0.862645        23.4738 
 346   0.0000       0.865472        23.5507 
 347   0.0000       0.866671        23.5833 
 348   0.0000       0.877184        23.8694 
 349   0.0000       0.886414        24.1206 
 350   0.0000       0.889183        24.1959 
 351   0.0000       0.893204        24.3053 
 352   0.0000       0.899308        24.4714 
 353   0.0000       0.902954        24.5706 
 354   0.0000       0.905787        24.6477 
 355   0.0000       0.908967        24.7342 
 356   0.0000       0.913999        24.8712 
 357   0.0000       0.914973        24.8977 
 358   0.0000       0.916587        24.9416 
 359   0.0000       0.924591        25.1594 
 360   0.0000       0.930065        25.3084 
 361   0.0000       0.931564        25.3492 
 362   0.0000       0.933625        25.4052 
 363   0.0000       0.936454        25.4822 
 364   0.0000       0.940914        25.6036 
 365   0.0000       0.943220        25.6663 
 366   0.0000       0.950548        25.8657 
 367   0.0000       0.954059        25.9613 
 368   0.0000       0.957527        26.0556 
 369   0.0000       0.962181        26.1823 
 370   0.0000       0.970087        26.3974 
 371   0.0000       0.973089        26.4791 
 372   0.0000       0.977919        26.6105 
 373   0.0000       0.985686        26.8219 
 374   0.0000       0.989217        26.9180 
 375   0.0000       0.993953        27.0468 
 376   0.0000       0.998681        27.1755 
 377   0.0000       1.001680        27.2571 
 378   0.0000       1.003305        27.3013 
 379   0.0000       1.014545        27.6072 
 380   0.0000       1.017657        27.6919 
 381   0.0000       1.022556        27.8252 
 382   0.0000       1.033700        28.1284 
 383   0.0000       1.034737        28.1566 
 384   0.0000       1.040443        28.3119 
 385   0.0000       1.043741        28.4016 
 386   0.0000       1.054484        28.6940 
 387   0.0000       1.064594        28.9691 
 388   0.0000       1.066643        29.0248 
 389   0.0000       1.073082        29.2000 
 390   0.0000       1.079083        29.3633 
 391   0.0000       1.087327        29.5877 
 392   0.0000       1.089284        29.6409 
 393   0.0000       1.102177        29.9918 
 394   0.0000       1.102938        30.0125 
 395   0.0000       1.107864        30.1465 
 396   0.0000       1.110132        30.2082 
 397   0.0000       1.119561        30.4648 
 398   0.0000       1.122150        30.5353 
 399   0.0000       1.130303        30.7571 
 400   0.0000       1.137993        30.9664 
 401   0.0000       1.142829        31.0980 
 402   0.0000       1.143430        31.1143 
 403   0.0000       1.162095        31.6222 
 404   0.0000       1.165318        31.7099 
 405   0.0000       1.172820        31.9140 
 406   0.0000       1.177637        32.0451 
 407   0.0000       1.180405        32.1205 
 408   0.0000       1.191192        32.4140 
 409   0.0000       1.195097        32.5202 
 410   0.0000       1.203340        32.7445 
 411   0.0000       1.209382        32.9090 
 412   0.0000       1.216624        33.1060 
 413   0.0000       1.225253        33.3408 
 414   0.0000       1.226355        33.3708 
 415   0.0000       1.233184        33.5567 
 416   0.0000       1.236210        33.6390 
 417   0.0000       1.240995        33.7692 
 418   0.0000       1.244794        33.8726 
 419   0.0000       1.247813        33.9547 
 420   0.0000       1.260780        34.3076 
 421   0.0000       1.266142        34.4535 
 422   0.0000       1.271189        34.5908 
 423   0.0000       1.271535        34.6002 
 424   0.0000       1.284302        34.9476 
 425   0.0000       1.287299        35.0292 
 426   0.0000       1.290711        35.1220 
 427   0.0000       1.293250        35.1911 
 428   0.0000       1.304323        35.4924 
 429   0.0000       1.308365        35.6024 
 430   0.0000       1.313245        35.7352 
 431   0.0000       1.320477        35.9320 
 432   0.0000       1.323544        36.0155 
 433   0.0000       1.325591        36.0712 
 434   0.0000       1.334957        36.3260 
 435   0.0000       1.338577        36.4245 
 436   0.0000       1.344056        36.5736 
 437   0.0000       1.347503        36.6674 
 438   0.0000       1.352106        36.7927 
 439   0.0000       1.359705        36.9995 
 440   0.0000       1.366171        37.1754 
 441   0.0000       1.369020        37.2529 
 442   0.0000       1.377988        37.4969 
 443   0.0000       1.381506        37.5927 
 444   0.0000       1.385981        37.7145 
 445   0.0000       1.389902        37.8212 
 446   0.0000       1.397172        38.0190 
 447   0.0000       1.402688        38.1691 
 448   0.0000       1.403666        38.1957 
 449   0.0000       1.409613        38.3575 
 450   0.0000       1.423137        38.7255 
 451   0.0000       1.428818        38.8801 
 452   0.0000       1.432250        38.9735 
 453   0.0000       1.441205        39.2172 
 454   0.0000       1.444253        39.3001 
 455   0.0000       1.448004        39.4022 
 456   0.0000       1.453558        39.5533 
 457   0.0000       1.462239        39.7895 
 458   0.0000       1.469815        39.9957 
 459   0.0000       1.474167        40.1141 
 460   0.0000       1.481492        40.3135 
 461   0.0000       1.485663        40.4269 
 462   0.0000       1.490298        40.5531 
 463   0.0000       1.492124        40.6028 
 464   0.0000       1.498876        40.7865 
 465   0.0000       1.500633        40.8343 
 466   0.0000       1.504888        40.9501 
 467   0.0000       1.512433        41.1554 
 468   0.0000       1.514200        41.2035 
 469   0.0000       1.521963        41.4147 
 470   0.0000       1.523601        41.4593 
 471   0.0000       1.533909        41.7398 
 472   0.0000       1.536382        41.8071 
 473   0.0000       1.542685        41.9786 
 474   0.0000       1.545890        42.0658 
 475   0.0000       1.551222        42.2109 
 476   0.0000       1.552060        42.2337 
 477   0.0000       1.560123        42.4531 
 478   0.0000       1.565073        42.5878 
 479   0.0000       1.567406        42.6513 
 480   0.0000       1.574702        42.8498 
 481   0.0000       1.580057        42.9955 
 482   0.0000       1.592877        43.3444 
 483   0.0000       1.601252        43.5723 
 484   0.0000       1.603044        43.6210 
 485   0.0000       1.606305        43.7098 
 486   0.0000       1.609479        43.7962 
 487   0.0000       1.611406        43.8486 
 488   0.0000       1.612867        43.8883 
 489   0.0000       1.613242        43.8986 
 490   0.0000       1.616903        43.9982 
 491   0.0000       1.624592        44.2074 
 492   0.0000       1.627277        44.2804 
 493   0.0000       1.632958        44.4350 
 494   0.0000       1.634238        44.4699 
 495   0.0000       1.642517        44.6952 
 496   0.0000       1.643409        44.7194 
 497   0.0000       1.648363        44.8542 
 498   0.0000       1.651068        44.9278 
 499   0.0000       1.659657        45.1616 
 500   0.0000       1.664253        45.2866 
 501   0.0000       1.667233        45.3677 
 502   0.0000       1.669930        45.4411 
 503   0.0000       1.675673        45.5974 
 504   0.0000       1.681073        45.7443 
 505   0.0000       1.686511        45.8923 
 506   0.0000       1.690585        46.0032 
 507   0.0000       1.694019        46.0966 
 508   0.0000       1.695159        46.1276 
 509   0.0000       1.697370        46.1878 
 510   0.0000       1.701790        46.3081 
 511   0.0000       1.704542        46.3829 
 512   0.0000       1.709011        46.5046 
 513   0.0000       1.715719        46.6871 
 514   0.0000       1.720200        46.8090 
 515   0.0000       1.722971        46.8844 
 516   0.0000       1.724544        46.9272 
 517   0.0000       1.735857        47.2351 
 518   0.0000       1.737263        47.2733 
 519   0.0000       1.743747        47.4498 
 520   0.0000       1.747621        47.5552 
 521   0.0000       1.750089        47.6223 
 522   0.0000       1.753555        47.7167 
 523   0.0000       1.763668        47.9918 
 524   0.0000       1.770925        48.1893 
 525   0.0000       1.774946        48.2987 
 526   0.0000       1.780618        48.4531 
 527   0.0000       1.782090        48.4931 
 528   0.0000       1.789403        48.6921 
 529   0.0000       1.793099        48.7927 
 530   0.0000       1.795655        48.8623 
 531   0.0000       1.800073        48.9825 
 532   0.0000       1.802053        49.0364 
 533   0.0000       1.806025        49.1444 
 534   0.0000       1.809558        49.2406 
 535   0.0000       1.813659        49.3522 
 536   0.0000       1.815112        49.3917 
 537   0.0000       1.820379        49.5350 
 538   0.0000       1.825366        49.6707 
 539   0.0000       1.827326        49.7241 
 540   0.0000       1.832105        49.8541 
 541   0.0000       1.834379        49.9160 
 542   0.0000       1.841568        50.1116 
 543   0.0000       1.848226        50.2928 
 544   0.0000       1.855171        50.4818 
 545   0.0000       1.863577        50.7105 
 546   0.0000       1.864358        50.7318 
 547   0.0000       1.873489        50.9802 
 548   0.0000       1.877286        51.0836 
 549   0.0000       1.884107        51.2692 
 550   0.0000       1.889391        51.4129 
 551   0.0000       1.894779        51.5596 
 552   0.0000       1.907143        51.8960 
 553   0.0000       1.908370        51.9294 
 554   0.0000       1.920872        52.2696 
 555   0.0000       1.923812        52.3496 
 556   0.0000       1.936634        52.6985 
 557   0.0000       1.940057        52.7916 
 558   0.0000       1.943682        52.8903 
 559   0.0000       1.948428        53.0194 
 560   0.0000       1.954552        53.1861 
 561   0.0000       1.959743        53.3273 
 562   0.0000       1.965071        53.4723 
 563   0.0000       1.969335        53.5883 
 564   0.0000       1.979791        53.8728 
 565   0.0000       1.980694        53.8974 
 566   0.0000       1.981290        53.9136 
 567   0.0000       1.988722        54.1159 
 568   0.0000       2.001767        54.4708 
 569   0.0000       2.008935        54.6659 
 570   0.0000       2.017440        54.8973 
 571   0.0000       2.019611        54.9564 
 572   0.0000       2.027922        55.1826 
 573   0.0000       2.031458        55.2788 
 574   0.0000       2.039090        55.4865 
 575   0.0000       2.043970        55.6193 
 576   0.0000       2.050104        55.7862 
 577   0.0000       2.053832        55.8876 
 578   0.0000       2.058004        56.0011 
 579   0.0000       2.071797        56.3765 
 580   0.0000       2.073991        56.4362 
 581   0.0000       2.084779        56.7297 
 582   0.0000       2.090491        56.8851 
 583   0.0000       2.095216        57.0137 
 584   0.0000       2.098249        57.0963 
 585   0.0000       2.107276        57.3419 
 586   0.0000       2.109240        57.3953 
 587   0.0000       2.113427        57.5093 
 588   0.0000       2.129862        57.9565 
 589   0.0000       2.135423        58.1078 
 590   0.0000       2.139677        58.2236 
 591   0.0000       2.144459        58.3537 
 592   0.0000       2.148929        58.4753 
 593   0.0000       2.153920        58.6111 
 594   0.0000       2.157824        58.7174 
 595   0.0000       2.171567        59.0913 
 596   0.0000       2.175728        59.2046 
 597   0.0000       2.180906        59.3455 
 598   0.0000       2.182643        59.3927 
 599   0.0000       2.187870        59.5350 
 600   0.0000       2.190081        59.5951 
 601   0.0000       2.195957        59.7550 
 602   0.0000       2.199799        59.8596 
 603   0.0000       2.209971        60.1364 
 604   0.0000       2.215136        60.2769 
 605   0.0000       2.221596        60.4527 
 606   0.0000       2.228518        60.6410 
 607   0.0000       2.231270        60.7159 
 608   0.0000       2.232608        60.7523 
 609   0.0000       2.239351        60.9359 
 610   0.0000       2.244284        61.0701 
 611   0.0000       2.252304        61.2883 
 612   0.0000       2.258258        61.4503 
 613   0.0000       2.258928        61.4686 
 614   0.0000       2.272407        61.8353 
 615   0.0000       2.281138        62.0729 
 616   0.0000       2.292015        62.3689 
 617   0.0000       2.297014        62.5049 
 618   0.0000       2.301229        62.6196 
 619   0.0000       2.301821        62.6357 
 620   0.0000       2.308432        62.8156 
 621   0.0000       2.315521        63.0085 
 622   0.0000       2.320635        63.1477 
 623   0.0000       2.328039        63.3492 
 624   0.0000       2.330938        63.4280 
 625   0.0000       2.335503        63.5523 
 626   0.0000       2.342742        63.7493 
 627   0.0000       2.344417        63.7948 
 628   0.0000       2.350418        63.9581 
 629   0.0000       2.351768        63.9949 
 630   0.0000       2.359689        64.2104 
 631   0.0000       2.363987        64.3274 
 632   0.0000       2.372352        64.5550 
 633   0.0000       2.382773        64.8386 
 634   0.0000       2.396856        65.2218 
 635   0.0000       2.409362        65.5621 
 636   0.0000       2.417278        65.7775 
 637   0.0000       2.426093        66.0174 
 638   0.0000       2.430217        66.1296 
 639   0.0000       2.435894        66.2841 
 640   0.0000       2.438943        66.3670 
 641   0.0000       2.445006        66.5320 
 642   0.0000       2.459298        66.9209 
 643   0.0000       2.468722        67.1773 
 644   0.0000       2.471996        67.2664 
 645   0.0000       2.487967        67.7010 
 646   0.0000       2.499214        68.0071 
 647   0.0000       2.500575        68.0441 
 648   0.0000       2.514095        68.4120 
 649   0.0000       2.516770        68.4848 
 650   0.0000       2.525915        68.7336 
 651   0.0000       2.535640        68.9983 
 652   0.0000       2.539305        69.0980 
 653   0.0000       2.546578        69.2959 
 654   0.0000       2.562228        69.7218 
 655   0.0000       2.573138        70.0187 
 656   0.0000       2.580091        70.2078 
 657   0.0000       2.583951        70.3129 
 658   0.0000       2.597013        70.6683 
 659   0.0000       2.608867        70.9909 
 660   0.0000       2.620080        71.2960 
 661   0.0000       2.620518        71.3079 
 662   0.0000       2.630784        71.5873 
 663   0.0000       2.640403        71.8490 
 664   0.0000       2.644496        71.9604 
 665   0.0000       2.654593        72.2352 
 666   0.0000       2.655384        72.2567 
 667   0.0000       2.659259        72.3621 
 668   0.0000       2.667024        72.5734 
 669   0.0000       2.671959        72.7077 
 670   0.0000       2.678720        72.8917 
 671   0.0000       2.689925        73.1966 
 672   0.0000       2.693974        73.3068 
 673   0.0000       2.695044        73.3359 
 674   0.0000       2.701513        73.5119 
 675   0.0000       2.703329        73.5613 
 676   0.0000       2.704526        73.5939 
 677   0.0000       2.709003        73.7157 
 678   0.0000       2.717511        73.9472 
 679   0.0000       2.721139        74.0460 
 680   0.0000       2.731258        74.3213 
[...]
 144   8.661     143.1   0.095621   0.087913   2.861303   2.315461     0.04 (  71->  86)    0.03 (  76->  84)    0.03 (  73->  84)
 145   8.684     142.8   0.008654   0.006351  28.651790  23.365108     0.05 (  61->  77)    0.03 (  61->  79)    0.03 (  52->  78)
 146   8.698     142.6   0.009173   0.007371   7.381764   5.919566     0.06 (  68->  86)    0.03 (  60->  85)    0.03 (  70->  86)
 147   8.703     142.5   0.040979   0.037991  -12.049109  -12.027555     0.05 (  68->  86)    0.03 (  66->  81)    0.03 (  65->  81)
 148   8.724     142.1   0.022093   0.018824   7.592682   7.210865     0.04 (  76-> 110)    0.03 (  60->  77)    0.02 (  60->  79)
 149   8.726     142.1   0.015144   0.013571   5.363396   5.239780     0.08 (  64->  78)    0.06 (  65->  78)    0.04 (  63->  77)
 150   8.747     141.7   0.027469   0.028071  21.127428  20.701578     0.03 (  71->  86)    0.03 (  46->  77)    0.02 (  62->  78)
 151   8.771     141.4   0.019979   0.016454  20.990612  18.846489     0.05 (  66->  83)    0.04 (  66->  82)    0.03 (  64->  82)
 152   8.781     141.2   0.105446   0.095534  -106.367390  -100.504304     0.05 (  46->  77)    0.04 (  65->  81)    0.03 (  58->  77)
 153   8.795     141.0   0.015656   0.014070  -10.946570  -11.285730     0.05 (  70->  97)    0.04 (  70->  92)    0.03 (  70->  93)
 154   8.800     140.9   0.007299   0.006691  17.435730  15.745891     0.04 (  74->  91)    0.03 (  74-> 105)    0.02 (  76-> 110)
 155   8.810     140.7   0.024006   0.020684  -13.066233  -12.167741     0.08 (  74-> 104)    0.05 (  74-> 105)    0.05 (  75-> 106)
 156   8.826     140.5   0.010833   0.009147  18.816276  16.240585     0.06 (  70->  97)    0.04 (  66->  84)    0.04 (  70->  95)
 157   8.837     140.3   0.005041   0.004513  -6.960337  -6.425469     0.07 (  63->  78)    0.05 (  64->  83)    0.03 (  58->  81)
 158   8.852     140.1   0.047082   0.043944  19.707599  19.218193     0.05 (  67->  84)    0.04 (  76->  85)    0.04 (  66->  81)
 159   8.861     139.9   0.014160   0.012541  -18.038322  -16.678265     0.08 (  66->  84)    0.05 (  69->  88)    0.03 (  70->  91)
 160   8.861     139.9   0.000906   0.001137   0.307025  -0.453232     0.04 (  63->  78)    0.03 (  74-> 110)    0.02 (  65->  83)
 161   8.879     139.6   0.000784   0.000838   0.144515   0.602042     0.03 (  62->  79)    0.03 (  64->  79)    0.02 (  46->  77)
 162   8.891     139.4   0.010471   0.009100  32.649154  29.964566     0.06 (  69->  93)    0.06 (  69->  97)    0.02 (  69->  96)
 163   8.897     139.4   0.018462   0.016454  22.498977  21.859373     0.04 (  65->  81)    0.03 (  67->  89)    0.02 (  66->  81)
 164   8.917     139.0   0.003272   0.003360   2.983457   3.708614     0.03 (  69->  97)    0.03 (  59->  77)    0.03 (  76->  91)
 165   8.928     138.9   0.010806   0.008725  -12.108037  -11.284411     0.04 (  71->  80)    0.03 (  61->  77)    0.02 (  51->  78)
 166   8.951     138.5   0.019770   0.018218  54.937962  53.816865     0.03 (  76->  85)    0.02 (  67->  86)    0.02 (  69->  88)
 167   8.962     138.3   0.023710   0.021233  28.998038  27.419362     0.04 (  76->  85)    0.03 (  75->  85)    0.02 (  42->  77)
 168   8.983     138.0   0.003365   0.003446  10.901034  11.591945     0.10 (  74-> 106)    0.04 (  71->  80)    0.03 (  74-> 102)
 169   8.992     137.9   0.007155   0.006056  -32.827149  -28.828175     0.06 (  57->  77)    0.02 (  50->  78)    0.02 (  42->  77)
 170   9.012     137.6   0.044659   0.040479  -52.922814  -50.607946     0.03 (  67->  86)    0.03 (  63->  80)    0.03 (  64->  80)
 171   9.022     137.4   0.021685   0.021140   5.472244   5.307883     0.03 (  71->  80)    0.03 (  73->  80)    0.03 (  63->  80)
 172   9.031     137.3   0.005986   0.005341   9.850800   8.278900     0.04 (  62->  81)    0.02 (  68->  88)    0.02 (  67->  86)
 173   9.042     137.1   0.010992   0.010062  23.426992  22.230324     0.04 (  71->  80)    0.03 (  73->  80)    0.02 (  74-> 104)
 174   9.049     137.0   0.010991   0.009951   4.266861   4.049935     0.04 (  74->  91)    0.04 (  76->  91)    0.03 (  58->  81)
 175   9.058     136.9   0.009534   0.008439  -11.441188  -10.564903     0.04 (  71->  80)    0.03 (  64->  80)    0.03 (  63->  80)
 176   9.095     136.3   0.001711   0.001624   2.527283   2.414050     0.07 (  64->  80)    0.07 (  71->  80)    0.05 (  73->  80)
 177   9.115     136.0   0.027399   0.024842  -19.967534  -19.857766     0.08 (  74-> 107)    0.07 (  74-> 106)    0.04 (  74->  91)
 178   9.129     135.8   0.032935   0.027748  23.286109  18.721759     0.03 (  74->  91)    0.03 (  76->  88)    0.03 (  74->  88)
 179   9.133     135.8   0.027449   0.023902  -27.078957  -24.691971     0.03 (  58->  77)    0.02 (  67->  79)    0.02 (  66->  86)
 180   9.150     135.5   0.018637   0.018192   7.912464   8.455465     0.06 (  75-> 108)    0.05 (  76-> 108)    0.04 (  76->  90)
 181   9.154     135.4   0.020050   0.018880  -14.665904  -14.256689     0.04 (  75->  88)    0.02 (  57->  77)    0.02 (  74-> 107)
 182   9.160     135.4   0.001342   0.001294  -1.014656  -0.482825     0.11 (  72->  97)    0.06 (  72-> 102)    0.06 (  72->  98)
 183   9.180     135.1   0.013735   0.011794  -0.624148  -0.387689     0.07 (  72->  97)    0.05 (  72-> 102)    0.04 (  75-> 108)
 184   9.184     135.0   0.007769   0.007869  -8.702176  -9.025115     0.05 (  55->  81)    0.04 (  75->  86)    0.03 (  67->  79)
 185   9.196     134.8   0.012901   0.010768  -4.451232  -4.549891     0.03 (  50->  78)    0.03 (  49->  77)    0.03 (  42->  77)
 186   9.210     134.6   0.010790   0.010083  15.062376  13.889844     0.07 (  75->  86)    0.07 (  55->  81)    0.07 (  76->  86)
 187   9.232     134.3   0.018489   0.015527  -2.705524  -2.152454     0.19 (  72->  81)    0.07 (  72->  98)    0.06 (  72->  82)
 188   9.240     134.2   0.005217   0.004715  -6.805295  -6.270214     0.03 (  63->  84)    0.02 (  73->  82)    0.02 (  74->  91)
 189   9.251     134.0   0.002901   0.002534  -7.628332  -7.939416     0.09 (  72->  81)    0.03 (  72->  82)    0.03 (  74->  88)
 190   9.281     133.6   0.010744   0.009405  -15.144479  -14.348965     0.04 (  64->  84)    0.03 (  58->  85)    0.02 (  62->  83)
 191   9.296     133.4   0.011994   0.010974  45.461524  43.987485     0.05 (  74-> 110)    0.05 (  71->  92)    0.03 (  75-> 113)
 192   9.305     133.2   0.015158   0.012040  -1.960760  -2.167186     0.11 (  58->  77)    0.09 (  58->  85)    0.06 (  58->  79)
 193   9.322     133.0   0.009881   0.008040  15.310809  13.848831     0.06 (  48->  78)    0.04 (  49->  78)    0.03 (  49->  77)
 194   9.329     132.9   0.026691   0.024536  29.043492  29.630774     0.05 (  64->  84)    0.03 (  63->  82)    0.03 (  66->  86)
 195   9.335     132.8   0.002832   0.002278  11.011250   8.482592     0.03 (  62->  79)    0.02 (  76->  91)    0.02 (  71->  91)
 196   9.336     132.8   0.025330   0.021130  -21.995983  -20.870447     0.07 (  49->  78)    0.04 (  48->  77)    0.03 (  48->  78)
 197   9.350     132.6   0.017231   0.016085   8.425787   8.212426     0.17 (  70->  80)    0.16 (  68->  80)    0.07 (  69->  80)
 198   9.364     132.4   0.009382   0.008869  -4.214856  -3.010571     0.06 (  70->  85)    0.03 (  68->  85)    0.03 (  70->  86)
 199   9.371     132.3   0.001177   0.001059  -3.738919  -4.758006     0.03 (  60->  77)    0.03 (  75->  86)    0.03 (  67->  83)
 200   9.385     132.1   0.009432   0.007760  -3.628648  -3.093189     0.05 (  68->  80)    0.05 (  70->  80)    0.04 (  73->  92)
 201   9.391     132.0   0.030856   0.028024   7.284916   7.071513     0.03 (  66->  91)    0.02 (  71->  83)    0.02 (  74-> 110)
 202   9.403     131.9   0.013847   0.012132  -0.475899  -0.268428     0.06 (  74-> 110)    0.03 (  54->  81)    0.03 (  68->  86)
 203   9.418     131.6   0.017290   0.014501  -1.145653  -0.316040     0.04 (  54->  81)    0.03 (  72->  81)    0.02 (  65->  91)
 204   9.426     131.5   0.005111   0.004084  -27.887772  -25.089403     0.03 (  65->  86)    0.03 (  67->  84)    0.02 (  67->  79)
 205   9.435     131.4   0.023849   0.021704  -23.232987  -24.537262     0.05 (  68->  86)    0.04 (  67->  83)    0.02 (  60->  85)
 206   9.446     131.3   0.043826   0.036436   3.500376   5.213528     0.03 (  72->  81)    0.03 (  59->  87)    0.03 (  67->  92)
 207   9.462     131.0   0.016625   0.017963  48.733438  49.195648     0.07 (  59->  87)    0.05 (  74-> 110)    0.04 (  52->  87)
 208   9.466     131.0   0.030270   0.028566   1.541890   0.405247     0.05 (  72->  83)    0.04 (  59->  87)    0.04 (  72->  81)
 209   9.472     130.9   0.063671   0.061590  -108.383330  -108.592805     0.06 (  59->  87)    0.05 (  66->  88)    0.04 (  59->  88)
 210   9.480     130.8   0.027013   0.023159  -30.415219  -26.384356     0.07 (  72->  83)    0.04 (  59->  87)    0.03 (  40->  77)
 211   9.483     130.7   0.046391   0.048568  -50.932948  -49.889901     0.05 (  59->  87)    0.04 (  67->  90)    0.03 (  54->  77)
 212   9.500     130.5   0.015158   0.013349  -7.596386  -7.318909     0.03 (  62->  83)    0.03 (  72-> 103)    0.03 (  70->  81)
 213   9.507     130.4   0.005873   0.005404  -2.090466  -1.746870     0.07 (  72-> 100)    0.03 (  72->  81)    0.03 (  40->  77)
 214   9.521     130.2   0.008452   0.006641  -13.019291  -11.398631     0.07 (  72-> 105)    0.05 (  72-> 100)    0.04 (  72-> 104)
 215   9.529     130.1   0.013755   0.011512  -0.435716  -1.301362     0.04 (  75->  90)    0.03 (  70->  81)    0.03 (  73->  94)
 216   9.544     129.9   0.009565   0.008429  10.889135  10.036644     0.02 (  67->  90)    0.02 (  68->  80)    0.02 (  72-> 103)
 217   9.554     129.8   0.008286   0.007944  -5.429738  -5.565559     0.13 (  52->  80)    0.07 (  66->  91)    0.02 (  72-> 105)
 218   9.559     129.7   0.028301   0.025741  -4.544595  -4.989776     0.25 (  52->  80)    0.03 (  65->  91)    0.03 (  65->  80)
 219   9.561     129.7   0.018625   0.017509  16.948575  16.063819     0.05 (  52->  80)    0.05 (  72-> 103)    0.03 (  69->  81)
 220   9.578     129.5   0.009597   0.008058  12.077356  11.144998     0.05 (  52->  80)    0.04 (  70->  81)    0.03 (  72-> 100)
 221   9.585     129.4   0.013182   0.010632   9.588550   8.887063     0.08 (  69->  81)    0.06 (  72-> 100)    0.04 (  70->  81)
 222   9.592     129.3   0.003095   0.002919  -7.049939  -6.538456     0.06 (  52->  80)    0.03 (  66->  91)    0.02 (  66->  90)
 223   9.602     129.1   0.033683   0.030076  10.964400   9.802791     0.04 (  72-> 103)    0.03 (  69->  81)    0.02 (  66->  91)
 224   9.617     128.9   0.002545   0.001855  -9.050874  -7.716960     0.06 (  72-> 103)    0.04 (  76->  87)    0.03 (  71->  95)
 225   9.636     128.7   0.004857   0.003910   6.431468   4.717746     0.05 (  76->  87)    0.02 (  48->  78)    0.02 (  76-> 113)
 226   9.644     128.6   0.028658   0.026962  24.384044  23.650376     0.09 (  51->  80)    0.05 (  63->  79)    0.03 (  65->  91)
 227   9.648     128.5   0.003828   0.003621   9.056260  10.384645     0.10 (  72-> 103)    0.06 (  63->  79)    0.02 (  64->  91)
 228   9.658     128.4   0.008811   0.007403   9.218108   8.373504     0.05 (  72->  83)    0.04 (  72-> 104)    0.03 (  72-> 105)
 229   9.666     128.3   0.023506   0.019100  21.541382  19.213140     0.05 (  72-> 103)    0.04 (  64->  91)    0.04 (  76->  87)
 230   9.673     128.2   0.013319   0.012507  -4.665429  -5.543672     0.07 (  76->  87)    0.06 (  75->  87)    0.05 (  72->  83)
 231   9.684     128.0   0.015170   0.013980  -8.705385  -8.178359     0.15 (  76->  87)    0.12 (  75->  87)    0.07 (  76->  88)
 232   9.695     127.9   0.012850   0.011333  -22.980614  -20.522315     0.03 (  76->  90)    0.03 (  76-> 111)    0.03 (  72-> 103)
 233   9.700     127.8   0.008854   0.007832   2.997394   2.716817     0.07 (  51->  80)    0.05 (  72-> 103)    0.04 (  68->  80)
 234   9.708     127.7   0.020677   0.018064  -27.074871  -25.848704     0.04 (  62->  79)    0.04 (  51->  80)    0.03 (  48->  77)
 235   9.736     127.3   0.021129   0.018611  25.018345  23.391078     0.05 (  76-> 111)    0.05 (  71->  94)    0.03 (  76->  89)
 236   9.740     127.3   0.004105   0.003382  -8.548405  -8.076965     0.07 (  76-> 111)    0.04 (  75-> 111)    0.04 (  51->  80)
 237   9.743     127.3   0.007328   0.006172   0.162472  -1.544232     0.04 (  76->  90)    0.03 (  72-> 103)    0.02 (  71->  85)
 238   9.752     127.1   0.003064   0.002769   3.758519   4.347225     0.04 (  56->  82)    0.03 (  64->  86)    0.02 (  56->  77)
 239   9.765     127.0   0.015279   0.013224   1.863100   0.972262     0.06 (  76->  89)    0.04 (  75->  89)    0.02 (  74->  90)
 240   9.779     126.8   0.004540   0.003425  -12.836156  -12.084873     0.04 (  58->  81)    0.03 (  58->  77)    0.02 (  56->  82)
 241   9.788     126.7   0.032659   0.027756  -39.971714  -36.996775     0.03 (  72-> 103)    0.02 (  65->  97)    0.02 (  76-> 114)
 242   9.801     126.5   0.002081   0.001962   8.318617   8.297753     0.04 (  68->  90)    0.03 (  70->  90)    0.02 (  60->  85)
 243   9.806     126.4   0.008254   0.007819  17.572617  16.898954     0.07 (  76->  89)    0.07 (  75->  89)    0.02 (  70->  94)
 244   9.810     126.4   0.007197   0.006960  25.160473  24.566786     0.13 (  75->  89)    0.10 (  76->  89)    0.03 (  73-> 101)
 245   9.826     126.2   0.013507   0.011543   3.615875   2.814582     0.12 (  74-> 111)    0.03 (  57->  78)    0.02 (  75->  89)
 246   9.828     126.2   0.025051   0.019552  -41.645763  -37.163082     0.05 (  76-> 113)    0.05 (  75-> 111)    0.05 (  75-> 112)
 247   9.841     126.0   0.001089   0.001102  -0.538835  -0.258139     0.05 (  63->  91)    0.04 (  63->  88)    0.03 (  64->  79)
 248   9.852     125.8   0.014875   0.012436  -2.373951  -1.757494     0.02 (  68->  90)    0.02 (  71-> 100)    0.02 (  63->  91)
 249   9.856     125.8   0.003113   0.002242  -11.323076  -9.935164     0.53 (  50->  80)    0.02 (  74-> 111)    0.01 (  68->  84)
 250   9.859     125.8   0.016755   0.015955  22.149681  20.773757     0.15 (  50->  80)    0.03 (  67->  81)    0.03 (  68->  84)
 251   9.881     125.5   0.010892   0.010276  -6.465503  -8.580910     0.03 (  55->  77)    0.03 (  73-> 101)    0.02 (  47->  77)
 252   9.889     125.4   0.007061   0.006347  -15.660185  -16.164780     0.04 (  76-> 116)    0.03 (  51->  80)    0.02 (  50->  80)
 253   9.897     125.3   0.009110   0.007707   7.338452   7.529107     0.03 (  55->  77)    0.03 (  45->  79)    0.02 (  45->  77)
 254   9.909     125.1   0.017035   0.014034  -3.316757  -3.241953     0.05 (  71-> 100)    0.02 (  63->  91)    0.02 (  69->  90)
 255   9.921     125.0   0.005405   0.004758  12.531347   8.948183     0.07 (  74->  88)    0.05 (  74->  90)    0.03 (  76->  92)
 256   9.927     124.9   0.007056   0.006319  32.065569  29.413734     0.11 (  74->  87)    0.06 (  74->  88)    0.03 (  75->  88)
 257   9.943     124.7   0.005882   0.005607  -7.947090  -7.700468     0.30 (  74->  87)    0.06 (  75->  87)    0.05 (  74->  88)
 258   9.968     124.4   0.010828   0.009289  13.017774  11.981887     0.13 (  74->  87)    0.10 (  74-> 111)    0.03 (  75-> 111)
 259   9.973     124.3   0.011153   0.010412   4.815885   4.046209     0.02 (  76-> 112)    0.02 (  55->  77)    0.02 (  75-> 115)
 260   9.978     124.3   0.018430   0.015791  -34.038156  -30.841845     0.04 (  36->  77)    0.03 (  44->  78)    0.02 (  55->  77)
 261   9.986     124.2   0.049521   0.050379  -33.205562  -34.522532     0.02 (  55->  77)    0.02 (  47->  78)    0.02 (  47->  79)
 262   9.996     124.0   0.058097   0.059499  68.803589  69.595459     0.03 (  67->  80)    0.02 (  44->  77)    0.02 (  68->  80)

sTD-DFT done

Total run time:       48.195 sec

           *** ORCA-CIS/TD-DFT FINISHED WITHOUT ERROR ***


-------------------------------------------------------------------------------
                          DFT DISPERSION CORRECTION                            
                                                                               
                              DFTD3 V3.1  Rev 1                                
                              USING zero damping                               
-------------------------------------------------------------------------------
The omegaB97X-D3 functional is recognized. Fit by Chai et al.
Active option DFTDOPT                   ...         3   

molecular C6(AA) [au] = 41087.467575 


            DFT-D V3
 parameters
 s6 scaling factor         :     1.0000 
 rs6 scaling factor        :     1.2810 
 s8 scaling factor         :     1.0000 
 rs8 scaling factor        :     1.0940 
 Damping factor alpha6     :    14.0000 
 Damping factor alpha8     :    16.0000 
 ad hoc parameters k1-k3   :    16.0000     1.3333    -4.0000 

 Edisp/kcal,au: -14.039879964892  -0.022373970510 
 E6   /kcal   :  -6.592654915 
 E8   /kcal   :  -7.447225050 
 % E8         :  53.043366958 

-------------------------   ----------------
Dispersion correction           -0.022373971
-------------------------   ----------------


-------------------------   --------------------
FINAL SINGLE POINT ENERGY     -2145.253095508388
-------------------------   --------------------


                            ***************************************
                            *     ORCA property calculations      *
                            ***************************************

                                    ---------------------
                                    Active property flags
                                    ---------------------
   (+) Dipole Moment
   (+) Quadrupole Moment


------------------------------------------------------------------------------
                       ORCA ELECTRIC PROPERTIES CALCULATION
------------------------------------------------------------------------------

Dipole Moment Calculation                       ... on
Quadrupole Moment Calculation                   ... on
Polarizability Calculation                      ... off
GBWName                                         ... total_job2.gbw
Electron density file                           ... total_job2.scfp.tmp

-------------
DIPOLE MOMENT
-------------
                                X             Y             Z
Electronic contribution:     -2.06732      -1.95643       7.93474
Nuclear contribution   :      2.40455       1.79439      -8.55519
                        -----------------------------------------
Total Dipole Moment    :      0.33722      -0.16203      -0.62045
                        -----------------------------------------
Magnitude (a.u.)       :      0.72452
Magnitude (Debye)      :      1.84159


------------------------
QUADRUPOLE MOMENT (A.U.)
------------------------

                XX           YY           ZZ           XY           XZ           YZ
  NUC     24771.63449    838.47855   2698.65614  -1812.51062   1226.66308   -594.22341
  EL     -24864.38397   -992.98949  -2845.37218   1806.38623  -1204.72323    592.72716
  TOT       -92.74948   -154.51094   -146.71604     -6.12439     21.93985     -1.49625

--------------------------------------------------------------------------
[[42037,1],4]: A high-performance Open MPI point-to-point messaging module
was unable to find any relevant network interfaces:

Module: OpenFabrics (openib)
  Host: cx1-136-19-1

Another transport will be used instead, although this may result in
lower performance.
--------------------------------------------------------------------------

Timings for individual modules:

Sum of individual times         ...      217.609 sec (=   3.627 min)
GTO integral calculation        ...        6.377 sec (=   0.106 min)   2.9 %
SCF iterations                  ...      158.697 sec (=   2.645 min)  72.9 %
CIS module                      ...       52.534 sec (=   0.876 min)  24.1 %



                             ****ORCA TERMINATED NORMALLY****
TOTAL RUN TIME: 0 days 0 hours 13 minutes 12 seconds 285 msec
