
                                 *****************
                                 * O   R   C   A *
                                 *****************

           --- An Ab Initio, DFT and Semiempirical electronic structure package ---

                  #######################################################
                  #                        -***-                        #
                  #  Department of molecular theory and spectroscopy    #
                  #              Directorship: Frank Neese              #
                  # Max Planck Institute for Chemical Energy Conversion #
                  #                  D-45470 Muelheim/Ruhr              #
                  #                       Germany                       #
                  #                                                     #
                  #                  All rights reserved                #
                  #                        -***-                        #
                  #######################################################


                         Program Version 4.0.0 -  RELEASE  -


 With contributions from (in alphabetic order):
   Daniel Aravena         : Magnetic Properties
   Michael Atanasov       : Ab Initio Ligand Field Theory
   Ute Becker             : Parallelization
   Martin Brehm           : Molecular dynamics
   Dmytro Bykov           : SCF Hessian
   Vijay G. Chilkuri      : MRCI spin determinant printing
   Dipayan Datta          : RHF DLPNO-CCSD density
   Achintya Kumar Dutta   : EOM-CC, STEOM-CC
   Dmitry Ganyushin       : Spin-Orbit,Spin-Spin,Magnetic field MRCI
   Yang Guo               : DLPNO-NEVPT2, CIM, IAO-localization
   Andreas Hansen         : Spin unrestricted coupled pair/coupled cluster methods
   Lee Huntington         : MR-EOM, pCC
   Robert Izsak           : Overlap fitted RIJCOSX, COSX-SCS-MP3, EOM
   Christian Kollmar      : KDIIS, OOCD, Brueckner-CCSD(T), CCSD density
   Simone Kossmann        : Meta GGA functionals, TD-DFT gradient, OOMP2, MP2 Hessian
   Martin Krupicka        : AUTO-CI
   Dagmar Lenk            : GEPOL surface
   Dimitrios Liakos       : Extrapolation schemes; parallel MDCI
   Dimitrios Manganas     : ROCIS; embedding schemes
   Dimitrios Pantazis     : SARC Basis sets
   Taras Petrenko         : DFT Hessian,TD-DFT gradient, ASA, ECA, R-Raman, ABS, FL, XAS/XES, NRVS
   Peter Pinski           : DLPNO-MP2
   Christoph Reimann      : Effective Core Potentials
   Marius Retegan         : Local ZFS, SOC
   Christoph Riplinger    : Optimizer, TS searches, QM/MM, DLPNO-CCSD(T), (RO)-DLPNO pert. Triples
   Tobias Risthaus        : Range-separated hybrids, TD-DFT gradient, RPA, STAB
   Michael Roemelt        : Restricted open shell CIS
   Masaaki Saitow         : Open-shell DLPNO
   Barbara Sandhoefer     : DKH picture change effects
   Kantharuban Sivalingam : CASSCF convergence, NEVPT2, FIC-MRCI
   Georgi Stoychev        : AutoAux
   Boris Wezisla          : Elementary symmetry handling
   Frank Wennmohs         : Technical directorship


 We gratefully acknowledge several colleagues who have allowed us to
 interface, adapt or use parts of their codes:
   Stefan Grimme, W. Hujo, H. Kruse,             : VdW corrections, initial TS optimization,
                  C. Bannwarth                     DFT functionals, gCP, sTDA/sTD-DF
   Ed Valeev                                     : LibInt (2-el integral package), F12 methods
   Garnet Chan, S. Sharma, J. Yang, R. Olivares  : DMRG
   Ulf Ekstrom                                   : XCFun DFT Library
   Mihaly Kallay                                 : mrcc  (arbitrary order and MRCC methods)
   Jiri Pittner, Ondrej Demel                    : Mk-CCSD
   Frank Weinhold                                : gennbo (NPA and NBO analysis)
   Christopher J. Cramer and Donald G. Truhlar   : smd solvation model


 Your calculation uses the libint2 library for the computation of 2-el integrals
 For citations please refer to: http://libint.valeyev.net

 This ORCA versions uses:
   CBLAS   interface :  Fast vector & matrix operations
   LAPACKE interface :  Fast linear algebra routines
   SCALAPACK package :  Parallel linear algebra routines


Your calculation utilizes the atom-pairwise dispersion correction
with the zero-damping scheme (D30)
Cite in your paper:
S.Grimme, J.Antony, S.Ehrlich and H.Krieg, J.Chem.Phys., 132, (2010), 154104 
   

XCFun DFT library Copyright 2009-2010 Ulf Ekstrom and contributors.
See http://admol.org/xcfun for more information. This is free soft-
ware; see the source code for copying conditions. There is ABSOLUTELY
NO WARRANTY; not even for MERCHANTABILITY or FITNESS FOR A PARTICULAR
PURPOSE. For details see the documentation. Scientific users of this 
library should cite U. Ekstrom, L. Visscher, R. Bast, A. J. Thorvald-
sen and K. Ruud; J.Chem.Theor.Comp. 2010, DOI: 10.1021/ct100117s
XCFun Version 0.99 
Your calculation utilizes the basis: def2-TZVP
   F. Weigend and R. Ahlrichs, Phys. Chem. Chem. Phys. 7, 3297 (2005).

Your calculation utilizes the auxiliary basis: def2/J
   F. Weigend, Phys. Chem. Chem. Phys. 8, 1057 (2006).

================================================================================
                                        WARNINGS
                       Please study these warnings very carefully!
================================================================================

Warning: TCutStore was < 0. Adjusted to Thresh (uncritical)
INFO   : Checking CIS options ...

WARNING: CIS/ROCIS methods need fully converged wavefunctions
  ===> : Setting SCFConvForced true
         You can overwrite this default with %scf ConvForced false 


INFO   : the flag for use of LIBINT has been found!

Your calculation utilizes the atom-pairwise dispersion correction
with the zero-damping scheme (D30)
Cite in your paper:
S.Grimme, J.Antony, S.Ehrlich and H.Krieg, J.Chem.Phys., 132, (2010), 154104 
   

XCFun DFT library Copyright 2009-2010 Ulf Ekstrom and contributors.
See http://admol.org/xcfun for more information. This is free soft-
ware; see the source code for copying conditions. There is ABSOLUTELY
NO WARRANTY; not even for MERCHANTABILITY or FITNESS FOR A PARTICULAR
PURPOSE. For details see the documentation. Scientific users of this 
library should cite U. Ekstrom, L. Visscher, R. Bast, A. J. Thorvald-
sen and K. Ruud; J.Chem.Theor.Comp. 2010, DOI: 10.1021/ct100117s
XCFun Version 0.99 
Your calculation utilizes the basis: def2-TZVP
   F. Weigend and R. Ahlrichs, Phys. Chem. Chem. Phys. 7, 3297 (2005).

Your calculation utilizes the auxiliary basis: def2/J
   F. Weigend, Phys. Chem. Chem. Phys. 8, 1057 (2006).

================================================================================
                                        WARNINGS
                       Please study these warnings very carefully!
================================================================================

INFO   : Checking CIS options ...

INFO   : the flag for use of LIBINT has been found!

================================================================================
                                       INPUT FILE
================================================================================
NAME = total.inp
|  1> # 
|  2> !wB97X-D3 def2-TZVP def2/J RIJCOSX Grid5 FinalGrid6 TightSCF
|  3> %pal 
|  4>  nprocs 24
|  5> end
|  6> %tddft
|  7>   Mode sTDDFT
|  8>   nroots 2
|  9>   Ethresh 10.0
| 10>   maxcore 5000
| 11>   triplets true
| 12> end
| 13> * xyz 0 1 
| 14> C -3.81947035 -1.53334622 2.84092583
| 15> C -3.43398966 -0.86020781 1.68372420
| 16> C -4.38274408 -0.07900545 0.99864418
| 17> C -5.71600577 -0.03694917 1.49535061
| 18> C -6.10439181 -0.70680411 2.66562111
| 19> C -5.13366654 -1.44991938 3.33368027
| 20> C -4.37116120 0.71131456 -0.22170396
| 21> C -5.70946838 1.15633674 -0.41812579
| 22> N -6.49330904 0.72057045 0.63616953
| 23> C -6.10832625 1.89277066 -1.54439934
| 24> C -5.13475908 2.16863401 -2.50314488
| 25> C -3.80703824 1.75463743 -2.32862305
| 26> C -3.38552488 1.04968593 -1.18606764
| 27> H -3.07013830 2.01236885 -3.08533756
| 28> H -7.48789712 0.88410183 0.73278610
| 29> H -5.40432870 2.72405463 -3.39734604
| 30> H -2.41723600 -0.95922381 1.31520434
| 31> H -7.12682732 -0.65593163 3.03053545
| 32> H -5.39836420 -1.98372680 4.24257734
| 33> H -3.09142819 -2.13824186 3.37445238
| 34> N 2.85769014 -0.13243052 -0.77455336
| 35> C 1.81218796 -0.10376176 -1.68949636
| 36> C 2.16462520 -0.42762385 -2.98896435
| 37> S 3.86874569 -0.78403859 -3.08693341
| 38> C 4.00492074 -0.46710101 -1.32880394
| 39> C 0.47034221 0.24746052 -1.24528312
| 40> S -0.91730643 0.29457178 -2.36325430
| 41> C -1.96131687 0.74040976 -1.01244905
| 42> C -1.19401911 0.83814612 0.13383373
| 43> N 0.14651911 0.56141569 -0.00105660
| 44> H 1.51099679 -0.46727544 -3.85129771
| 45> H -1.58159677 1.15082291 1.10114471
| 46> C 5.28227725 -0.58178801 -0.62472396
| 47> C 5.38814232 -0.27853014 0.75921463
| 48> C 6.62280420 -0.42750649 1.41184116
| 49> C 7.77873537 -0.80483709 0.70794754
| 50> C 7.69019822 -1.08559708 -0.66540313
| 51> C 6.45427688 -0.98294846 -1.30135582
| 52> O 8.95027554 -0.89755557 1.38109272
| 53> O 6.75354362 -0.16979311 2.78890426
| 54> O 4.30776668 0.14456604 1.46461759
| 55> H 6.38949002 -1.21202585 -2.36208712
| 56> H 8.77738772 -0.65193874 2.30425281
| 57> H 5.99585508 -0.52837622 3.27246398
| 58> H 4.58689824 0.52305962 2.30880952
| 59> H -7.13663358 2.21929581 -1.67062030
| 60> H 8.57366888 -1.38793915 -1.21576320
| 61> *
| 62> $new_job
| 63> # 
| 64> !wB97X-D3 def2-TZVP def2/J RIJCOSX Grid5 FinalGrid6 TightSCF
| 65> %pal 
| 66>  nprocs 24
| 67> end
| 68> %elprop
| 69>    dipole     true
| 70>    quadrupole true
| 71> end
| 72> %tddft
| 73>   Mode sTDDFT
| 74>   nroots 2
| 75>   Ethresh 10.0
| 76>   maxcore 5000
| 77> end
| 78> * xyz 0 1 
| 79> C -3.81947035 -1.53334622 2.84092583
| 80> C -3.43398966 -0.86020781 1.68372420
| 81> C -4.38274408 -0.07900545 0.99864418
| 82> C -5.71600577 -0.03694917 1.49535061
| 83> C -6.10439181 -0.70680411 2.66562111
| 84> C -5.13366654 -1.44991938 3.33368027
| 85> C -4.37116120 0.71131456 -0.22170396
| 86> C -5.70946838 1.15633674 -0.41812579
| 87> N -6.49330904 0.72057045 0.63616953
| 88> C -6.10832625 1.89277066 -1.54439934
| 89> C -5.13475908 2.16863401 -2.50314488
| 90> C -3.80703824 1.75463743 -2.32862305
| 91> C -3.38552488 1.04968593 -1.18606764
| 92> H -3.07013830 2.01236885 -3.08533756
| 93> H -7.48789712 0.88410183 0.73278610
| 94> H -5.40432870 2.72405463 -3.39734604
| 95> H -2.41723600 -0.95922381 1.31520434
| 96> H -7.12682732 -0.65593163 3.03053545
| 97> H -5.39836420 -1.98372680 4.24257734
| 98> H -3.09142819 -2.13824186 3.37445238
| 99> N 2.85769014 -0.13243052 -0.77455336
|100> C 1.81218796 -0.10376176 -1.68949636
|101> C 2.16462520 -0.42762385 -2.98896435
|102> S 3.86874569 -0.78403859 -3.08693341
|103> C 4.00492074 -0.46710101 -1.32880394
|104> C 0.47034221 0.24746052 -1.24528312
|105> S -0.91730643 0.29457178 -2.36325430
|106> C -1.96131687 0.74040976 -1.01244905
|107> C -1.19401911 0.83814612 0.13383373
|108> N 0.14651911 0.56141569 -0.00105660
|109> H 1.51099679 -0.46727544 -3.85129771
|110> H -1.58159677 1.15082291 1.10114471
|111> C 5.28227725 -0.58178801 -0.62472396
|112> C 5.38814232 -0.27853014 0.75921463
|113> C 6.62280420 -0.42750649 1.41184116
|114> C 7.77873537 -0.80483709 0.70794754
|115> C 7.69019822 -1.08559708 -0.66540313
|116> C 6.45427688 -0.98294846 -1.30135582
|117> O 8.95027554 -0.89755557 1.38109272
|118> O 6.75354362 -0.16979311 2.78890426
|119> O 4.30776668 0.14456604 1.46461759
|120> H 6.38949002 -1.21202585 -2.36208712
|121> H 8.77738772 -0.65193874 2.30425281
|122> H 5.99585508 -0.52837622 3.27246398
|123> H 4.58689824 0.52305962 2.30880952
|124> H -7.13663358 2.21929581 -1.67062030
|125> H 8.57366888 -1.38793915 -1.21576320
|126> *
|127> 
|128>                          ****END OF INPUT****
================================================================================


                 $$$$$$$$$$$$$$$$$$$$$$$$$$$$$$$$$$$$$$$$$$$$$$ 
                 $ THERE ARE  2 JOBS TO BE PROCESSED THIS RUN $
                 $$$$$$$$$$$$$$$$$$$$$$$$$$$$$$$$$$$$$$$$$$$$$$ 




                 $$$$$$$$$$$$$$$$  JOB NUMBER  1 $$$$$$$$$$$$$$


                       ****************************
                       * Single Point Calculation *
                       ****************************

---------------------------------
CARTESIAN COORDINATES (ANGSTROEM)
---------------------------------
  C     -3.819470   -1.533346    2.840926
  C     -3.433990   -0.860208    1.683724
  C     -4.382744   -0.079005    0.998644
  C     -5.716006   -0.036949    1.495351
  C     -6.104392   -0.706804    2.665621
  C     -5.133667   -1.449919    3.333680
  C     -4.371161    0.711315   -0.221704
  C     -5.709468    1.156337   -0.418126
  N     -6.493309    0.720570    0.636170
  C     -6.108326    1.892771   -1.544399
  C     -5.134759    2.168634   -2.503145
  C     -3.807038    1.754637   -2.328623
  C     -3.385525    1.049686   -1.186068
  H     -3.070138    2.012369   -3.085338
  H     -7.487897    0.884102    0.732786
  H     -5.404329    2.724055   -3.397346
  H     -2.417236   -0.959224    1.315204
  H     -7.126827   -0.655932    3.030535
  H     -5.398364   -1.983727    4.242577
  H     -3.091428   -2.138242    3.374452
  N      2.857690   -0.132431   -0.774553
  C      1.812188   -0.103762   -1.689496
  C      2.164625   -0.427624   -2.988964
  S      3.868746   -0.784039   -3.086933
  C      4.004921   -0.467101   -1.328804
  C      0.470342    0.247461   -1.245283
  S     -0.917306    0.294572   -2.363254
  C     -1.961317    0.740410   -1.012449
  C     -1.194019    0.838146    0.133834
  N      0.146519    0.561416   -0.001057
  H      1.510997   -0.467275   -3.851298
  H     -1.581597    1.150823    1.101145
  C      5.282277   -0.581788   -0.624724
  C      5.388142   -0.278530    0.759215
  C      6.622804   -0.427506    1.411841
  C      7.778735   -0.804837    0.707948
  C      7.690198   -1.085597   -0.665403
  C      6.454277   -0.982948   -1.301356
  O      8.950276   -0.897556    1.381093
  O      6.753544   -0.169793    2.788904
  O      4.307767    0.144566    1.464618
  H      6.389490   -1.212026   -2.362087
  H      8.777388   -0.651939    2.304253
  H      5.995855   -0.528376    3.272464
  H      4.586898    0.523060    2.308810
  H     -7.136634    2.219296   -1.670620
  H      8.573669   -1.387939   -1.215763

----------------------------
CARTESIAN COORDINATES (A.U.)
----------------------------
  NO LB      ZA    FRAG     MASS         X           Y           Z
   0 C     6.0000    0    12.011   -7.217753   -2.897604    5.368572
   1 C     6.0000    0    12.011   -6.489300   -1.625557    3.181778
   2 C     6.0000    0    12.011   -8.282186   -0.149299    1.887164
   3 C     6.0000    0    12.011  -10.801685   -0.069824    2.825803
   4 C     6.0000    0    12.011  -11.535629   -1.335666    5.037294
   5 C     6.0000    0    12.011   -9.701224   -2.739951    6.299743
   6 C     6.0000    0    12.011   -8.260298    1.344190   -0.418960
   7 C     6.0000    0    12.011  -10.789332    2.185160   -0.790143
   8 N     7.0000    0    14.007  -12.270576    1.361681    1.202186
   9 C     6.0000    0    12.011  -11.543064    3.576818   -2.918492
  10 C     6.0000    0    12.011   -9.703288    4.098124   -4.730258
  11 C     6.0000    0    12.011   -7.194260    3.315784   -4.400460
  12 C     6.0000    0    12.011   -6.397715    1.983619   -2.241343
  13 H     1.0000    0     1.008   -5.801721    3.802826   -5.830443
  14 H     1.0000    0     1.008  -14.150075    1.670710    1.384765
  15 H     1.0000    0     1.008  -10.212701    5.147717   -6.420054
  16 H     1.0000    0     1.008   -4.567914   -1.812670    2.485376
  17 H     1.0000    0     1.008  -13.467752   -1.239531    5.726882
  18 H     1.0000    0     1.008  -10.201430   -3.748700    8.017309
  19 H     1.0000    0     1.008   -5.841953   -4.040692    6.376791
  20 N     7.0000    0    14.007    5.400252   -0.250257   -1.463694
  21 C     6.0000    0    12.011    3.424539   -0.196081   -3.192685
  22 C     6.0000    0    12.011    4.090549   -0.808092   -5.648324
  23 S    16.0000    0    32.060    7.310870   -1.481618   -5.833459
  24 C     6.0000    0    12.011    7.568203   -0.882693   -2.511076
  25 C     6.0000    0    12.011    0.888818    0.467633   -2.353244
  26 S    16.0000    0    32.060   -1.733458    0.556660   -4.465903
  27 C     6.0000    0    12.011   -3.706352    1.399172   -1.913251
  28 C     6.0000    0    12.011   -2.256369    1.583867    0.252909
  29 N     7.0000    0    14.007    0.276881    1.060922   -0.001997
  30 H     1.0000    0     1.008    2.855370   -0.883023   -7.277898
  31 H     1.0000    0     1.008   -2.988785    2.174740    2.080862
  32 C     6.0000    0    12.011    9.982057   -1.099420   -1.180557
  33 C     6.0000    0    12.011   10.182113   -0.526346    1.434708
  34 C     6.0000    0    12.011   12.515286   -0.807870    2.667993
  35 C     6.0000    0    12.011   14.699680   -1.520922    1.337827
  36 C     6.0000    0    12.011   14.532369   -2.051481   -1.257430
  37 C     6.0000    0    12.011   12.196816   -1.857503   -2.459206
  38 O     8.0000    0    15.999   16.913570   -1.696134    2.609887
  39 O     8.0000    0    15.999   12.762348   -0.320862    5.270265
  40 O     8.0000    0    15.999    8.140499    0.273190    2.767726
  41 H     1.0000    0     1.008   12.074386   -2.290397   -4.463698
  42 H     1.0000    0     1.008   16.586859   -1.231986    4.354407
  43 H     1.0000    0     1.008   11.330524   -0.998486    6.184061
  44 H     1.0000    0     1.008    8.667981    0.988439    4.363018
  45 H     1.0000    0     1.008  -13.486283    4.193861   -3.157015
  46 H     1.0000    0     1.008   16.201886   -2.622825   -2.297459

--------------------------------
INTERNAL COORDINATES (ANGSTROEM)
--------------------------------
 C      0   0   0     0.000000000000     0.00000000     0.00000000
 C      1   0   0     1.393135418348     0.00000000     0.00000000
 C      2   1   0     1.407034722579   119.08651350     0.00000000
 C      3   2   1     1.423401820398   118.56078512   358.22413798
 C      4   3   2     1.403239965180   122.42320148     2.27725898
 C      5   4   3     1.393137069919   117.49663842   358.96043839
 C      3   2   1     1.453956486322   134.83668270   182.11977163
 C      7   3   2     1.423970640158   106.15074800   174.75076027
 N      8   7   3     1.384137659896   109.19447629     2.28968950
 C      8   7   3     1.403536472065   122.80318272   183.60044139
 C     10   8   7     1.393960771631   117.21150424     0.91898732
 C     11  10   8     1.401675307041   121.16346506   358.43518704
 C     12  11  10     1.407147112043   122.19570210   359.74490721
 H     12  11  10     1.087227600860   119.03497432   181.68460848
 H      9   8   7     1.012562453739   125.31588676   181.32455695
 H     11  10   8     1.086625768005   119.59595101   179.14040460
 H      2   1   3     1.086001409112   119.79318938   181.09713868
 H      5   4   3     1.086795683129   121.20270539   179.60092465
 H      6   5   4     1.086788432360   119.55989792   180.11631960
 H      1   2   3     1.086551748231   119.43660323   179.99846220
 N     17   2   1     5.733717831526   166.37342495   225.18896941
 C     21  17   2     1.389610520770    63.30623928   282.70048993
 C     22  21  17     1.384816131662   114.93145440   205.41142779
 S     23  22  21     1.743747701947   110.44079022   359.97042961
 C     21  17   2     1.317321559788   156.62224902   197.37666541
 C     22  21  17     1.456445161808   119.82351088    25.33098003
 S     26  22  21     1.782595797769   122.15978611   180.35366794
 C     13  12  11     1.467706925742   119.49120130   184.95670174
 C     28  13  12     1.382845783264   128.43209855   136.90075322
 N     26  22  21     1.323453392430   124.70661975     0.42143878
 H     23  22  21     1.082783990793   127.03147255   179.94624306
 H     29  28  13     1.087967715313   124.03139576     1.57383794
 C     25  21  17     1.463052076942   125.29480182   254.57049119
 C     33  25  21     1.420724733949   121.13824938   357.54937755
 C     34  33  25     1.404459076814   119.70367030   178.59023108
 C     35  34  33     1.404998747242   121.26160391     3.38981519
 C     36  35  34     1.404548703927   119.45150556   357.67808576
 C     37  36  35     1.393726702684   119.16574728     0.00000000
 O     36  35  34     1.354336560761   118.75472209   178.19324436
 O     35  34  33     1.407057839449   121.13331406   181.70041842
 O     34  33  25     1.357871583403   120.88143022   359.10365947
 H     38  37  36     1.087117601107   118.85202633   180.66593284
 H     39  36  35     0.970794714269   107.53380287   358.91221739
 H     40  35  34     0.967731250519   110.39040893    41.92636741
 H     41  34  33     0.966349746503   110.24535761   194.80241001
 H     10   8   7     1.086262569206   121.33116243   179.92411622
 H     37  36  35     1.083894524861   120.05701692   180.66056609

---------------------------
INTERNAL COORDINATES (A.U.)
---------------------------
 C      0   0   0     0.000000000000     0.00000000     0.00000000
 C      1   0   0     2.632644408143     0.00000000     0.00000000
 C      2   1   0     2.658910286592   119.08651350     0.00000000
 C      3   2   1     2.689839619077   118.56078512   358.22413798
 C      4   3   2     2.651739234364   122.42320148     2.27725898
 C      5   4   3     2.632647529161   117.49663842   358.96043839
 C      3   2   1     2.747579569786   134.83668270   182.11977163
 C      7   3   2     2.690914532643   106.15074800   174.75076027
 N      8   7   3     2.615641108851   109.19447629     2.28968950
 C      8   7   3     2.652299551173   122.80318272   183.60044139
 C     10   8   7     2.634204099811   117.21150424     0.91898732
 C     11  10   8     2.648782458988   121.16346506   358.43518704
 C     12  11  10     2.659122671900   122.19570210   359.74490721
 H     12  11  10     2.054562410866   119.03497432   181.68460848
 H      9   8   7     1.913465731057   125.31588676   181.32455695
 H     11  10   8     2.053425111592   119.59595101   179.14040460
 H      2   1   3     2.052245244275   119.79318938   181.09713868
 H      5   4   3     2.053746204642   121.20270539   179.60092465
 H      6   5   4     2.053732502674   119.55989792   180.11631960
 H      1   2   3     2.053285234490   119.43660323   179.99846220
 N     17   2   1    10.835156430764   166.37342495   225.18896941
 C     21  17   2     2.625983317070    63.30623928   282.70048993
 C     22  21  17     2.616923234678   114.93145440   205.41142779
 S     23  22  21     3.295205603334   110.44079022   359.97042961
 C     21  17   2     2.489376978310   156.62224902   197.37666541
 C     22  21  17     2.752282484891   119.82351088    25.33098003
 S     26  22  21     3.368617865262   122.15978611   180.35366794
 C     13  12  11     2.773564134512   119.49120130   184.95670174
 C     28  13  12     2.613199815817   128.43209855   136.90075322
 N     26  22  21     2.500964462702   124.70661975     0.42143878
 H     23  22  21     2.046165204793   127.03147255   179.94624306
 H     29  28  13     2.055961024490   124.03139576     1.57383794
 C     25  21  17     2.764767745086   125.29480182   254.57049119
 C     33  25  21     2.684780658852   121.13824938   357.54937755
 C     34  33  25     2.654043021478   119.70367030   178.59023108
 C     35  34  33     2.655062850789   121.26160391     3.38981519
 C     36  35  34     2.654212392177   119.45150556   357.67808576
 C     37  36  35     2.633761773605   119.16574728     0.00000000
 O     36  35  34     2.559325192995   118.75472209   178.19324436
 O     35  34  33     2.658953971145   121.13331406   181.70041842
 O     34  33  25     2.566005417665   120.88143022   359.10365947
 H     38  37  36     2.054354541458   118.85202633   180.66593284
 H     39  36  35     1.834536142227   107.53380287   358.91221739
 H     40  35  34     1.828747034718   110.39040893    41.92636741
 H     41  34  33     1.826136370475   110.24535761   194.80241001
 H     10   8   7     2.052738765329   121.33116243   179.92411622
 H     37  36  35     2.048263810044   120.05701692   180.66056609

---------------------
BASIS SET INFORMATION
---------------------
There are 5 groups of distinct atoms

 Group   1 Type C   : 11s6p2d1f contracted to 5s3p2d1f pattern {62111/411/11/1}
 Group   2 Type N   : 11s6p2d1f contracted to 5s3p2d1f pattern {62111/411/11/1}
 Group   3 Type H   : 5s1p contracted to 3s1p pattern {311/1}
 Group   4 Type S   : 14s9p3d1f contracted to 5s5p2d1f pattern {73211/51111/21/1}
 Group   5 Type O   : 11s6p2d1f contracted to 5s3p2d1f pattern {62111/411/11/1}

Atom   0C    basis set group =>   1
Atom   1C    basis set group =>   1
Atom   2C    basis set group =>   1
Atom   3C    basis set group =>   1
Atom   4C    basis set group =>   1
Atom   5C    basis set group =>   1
Atom   6C    basis set group =>   1
Atom   7C    basis set group =>   1
Atom   8N    basis set group =>   2
Atom   9C    basis set group =>   1
Atom  10C    basis set group =>   1
Atom  11C    basis set group =>   1
Atom  12C    basis set group =>   1
Atom  13H    basis set group =>   3
Atom  14H    basis set group =>   3
Atom  15H    basis set group =>   3
Atom  16H    basis set group =>   3
Atom  17H    basis set group =>   3
Atom  18H    basis set group =>   3
Atom  19H    basis set group =>   3
Atom  20N    basis set group =>   2
Atom  21C    basis set group =>   1
Atom  22C    basis set group =>   1
Atom  23S    basis set group =>   4
Atom  24C    basis set group =>   1
Atom  25C    basis set group =>   1
Atom  26S    basis set group =>   4
Atom  27C    basis set group =>   1
Atom  28C    basis set group =>   1
Atom  29N    basis set group =>   2
Atom  30H    basis set group =>   3
Atom  31H    basis set group =>   3
Atom  32C    basis set group =>   1
Atom  33C    basis set group =>   1
Atom  34C    basis set group =>   1
Atom  35C    basis set group =>   1
Atom  36C    basis set group =>   1
Atom  37C    basis set group =>   1
Atom  38O    basis set group =>   5
Atom  39O    basis set group =>   5
Atom  40O    basis set group =>   5
Atom  41H    basis set group =>   3
Atom  42H    basis set group =>   3
Atom  43H    basis set group =>   3
Atom  44H    basis set group =>   3
Atom  45H    basis set group =>   3
Atom  46H    basis set group =>   3
-------------------------------
AUXILIARY BASIS SET INFORMATION
-------------------------------
There are 5 groups of distinct atoms

 Group   1 Type C   : 12s5p4d2f1g contracted to 6s4p3d1f1g pattern {711111/2111/211/2/1}
 Group   2 Type N   : 12s5p4d2f1g contracted to 6s4p3d1f1g pattern {711111/2111/211/2/1}
 Group   3 Type H   : 5s2p1d contracted to 3s1p1d pattern {311/2/1}
 Group   4 Type S   : 14s5p5d2f1g contracted to 8s4p3d1f1g pattern {71111111/2111/311/2/1}
 Group   5 Type O   : 12s5p4d2f1g contracted to 6s4p3d1f1g pattern {711111/2111/211/2/1}

Atom   0C    basis set group =>   1
Atom   1C    basis set group =>   1
Atom   2C    basis set group =>   1
Atom   3C    basis set group =>   1
Atom   4C    basis set group =>   1
Atom   5C    basis set group =>   1
Atom   6C    basis set group =>   1
Atom   7C    basis set group =>   1
Atom   8N    basis set group =>   2
Atom   9C    basis set group =>   1
Atom  10C    basis set group =>   1
Atom  11C    basis set group =>   1
Atom  12C    basis set group =>   1
Atom  13H    basis set group =>   3
Atom  14H    basis set group =>   3
Atom  15H    basis set group =>   3
Atom  16H    basis set group =>   3
Atom  17H    basis set group =>   3
Atom  18H    basis set group =>   3
Atom  19H    basis set group =>   3
Atom  20N    basis set group =>   2
Atom  21C    basis set group =>   1
Atom  22C    basis set group =>   1
Atom  23S    basis set group =>   4
Atom  24C    basis set group =>   1
Atom  25C    basis set group =>   1
Atom  26S    basis set group =>   4
Atom  27C    basis set group =>   1
Atom  28C    basis set group =>   1
Atom  29N    basis set group =>   2
Atom  30H    basis set group =>   3
Atom  31H    basis set group =>   3
Atom  32C    basis set group =>   1
Atom  33C    basis set group =>   1
Atom  34C    basis set group =>   1
Atom  35C    basis set group =>   1
Atom  36C    basis set group =>   1
Atom  37C    basis set group =>   1
Atom  38O    basis set group =>   5
Atom  39O    basis set group =>   5
Atom  40O    basis set group =>   5
Atom  41H    basis set group =>   3
Atom  42H    basis set group =>   3
Atom  43H    basis set group =>   3
Atom  44H    basis set group =>   3
Atom  45H    basis set group =>   3
Atom  46H    basis set group =>   3
-------------------------
ECP PARAMETER INFORMATION
-------------------------



--------------------------------------------------------------------------
[[19286,1],20]: A high-performance Open MPI point-to-point messaging module
was unable to find any relevant network interfaces:

Module: OpenFabrics (openib)
  Host: cx1-136-6-4

Another transport will be used instead, although this may result in
lower performance.
--------------------------------------------------------------------------


           ************************************************************
           *        Program running with 24 parallel MPI-processes    *
           *              working on a common directory               *
           ************************************************************
------------------------------------------------------------------------------
                           ORCA GTO INTEGRAL CALCULATION
                           -- RI-GTO INTEGRALS CHOSEN --
------------------------------------------------------------------------------

                         BASIS SET STATISTICS AND STARTUP INFO

Gaussian basis set:
 # of primitive gaussian shells          ...  744
 # of primitive gaussian functions       ... 1626
 # of contracted shells                  ...  416
 # of contracted basis functions         ... 1094
 Highest angular momentum                ...    3
 Maximum contraction depth               ...    7
Auxiliary gaussian basis set:
 # of primitive gaussian shells          ...  894
 # of primitive gaussian functions       ... 2494
 # of contracted shells                  ...  559
 # of contracted aux-basis functions     ... 1737
 Highest angular momentum                ...    4
 Maximum contraction depth               ...    7
Ratio of auxiliary to basis functions    ...  1.59
Integral package used                  ... LIBINT
 One Electron integrals                  
   ECP integrals                         ... done
 Ordering auxiliary basis shells         ... done
 Integral threshhold             Thresh  ...  2.500e-11
 Primitive cut-off               TCut    ...  2.500e-12
 Pre-screening matrix                    ... done
 Shell pair data                         ... 
 Ordering of the shell pairs             ... done (   0.012 sec) 44578 of 86736 pairs
 Determination of significant pairs      ... done (   0.000 sec)
 Creation of shell pair data             ... done (   0.013 sec)
 Storage of shell pair data              ... done (   0.114 sec)
 Shell pair data done in (   0.140 sec)
 Computing two index integrals           ... done
 Cholesky decomposition of the V-matrix  ... done


Timings:
 Total evaluation time                   ...   5.394 sec (  0.090 min)
 One electron matrix time                ...   1.581 sec (  0.026 min) = 29.3%
 Schwartz matrix evaluation time         ...   2.385 sec (  0.040 min) = 44.2%
 Two index repulsion integral time       ...   0.625 sec (  0.010 min) = 11.6%
 Cholesky decomposition of V             ...   0.613 sec (  0.010 min) = 11.4%
 Three index repulsion integral time     ...   0.000 sec (  0.000 min) =  0.0%

--------------------------------------------------------------------------
[[18660,1],11]: A high-performance Open MPI point-to-point messaging module
was unable to find any relevant network interfaces:

Module: OpenFabrics (openib)
  Host: cx1-136-6-4

Another transport will be used instead, although this may result in
lower performance.
--------------------------------------------------------------------------


           ************************************************************
           *        Program running with 24 parallel MPI-processes    *
           *              working on a common directory               *
           ************************************************************
-------------------------------------------------------------------------------
                                 ORCA SCF
-------------------------------------------------------------------------------

------------
SCF SETTINGS
------------
Hamiltonian:
 Density Functional     Method          .... DFT(GTOs)
 Exchange Functional    Exchange        .... WB97X-D3
 Correlation Functional Correlation     .... WB97X-D3
 Gradients option       PostSCFGGA      .... off
 Hybrid DFT is turned on
   Fraction HF Exchange ScalHFX         ....  0.195728
   Scaling of DF-GGA-X  ScalDFX         ....  0.000000
   Scaling of DF-GGA-C  ScalDFC         ....  1.000000
   Scaling of DF-LDA-C  ScalLDAC        ....  1.000000
   Perturbative correction              ....  0.000000
 Long-range corrected/Screened/Range-Separated Hybrid DFT is turned on
   Amount of maximum screened exact exchange              ....  0.804272
   Range separation parameter mu (erf(mu*r12)/r12)        ....  0.250000
 RI-approximation to the Coulomb term is turned on
   Number of auxiliary basis functions  .... 1737
   RIJ-COSX (HFX calculated with COS-X)).... on


General Settings:
 Integral files         IntName         .... total
 Hartree-Fock type      HFTyp           .... RHF
 Total Charge           Charge          ....    0
 Multiplicity           Mult            ....    1
 Number of Electrons    NEL             ....  236
 Basis Dimension        Dim             .... 1094
 Nuclear Repulsion      ENuc            ....   3119.0840283456 Eh

Convergence Acceleration:
 DIIS                   CNVDIIS         .... on
   Start iteration      DIISMaxIt       ....    12
   Startup error        DIISStart       ....  0.200000
   # of expansion vecs  DIISMaxEq       ....     5
   Bias factor          DIISBfac        ....   1.050
   Max. coefficient     DIISMaxC        ....  10.000
 Newton-Raphson         CNVNR           .... off
 SOSCF                  CNVSOSCF        .... on
   Start iteration      SOSCFMaxIt      ....   150
   Startup grad/error   SOSCFStart      ....  0.003300
 Level Shifting         CNVShift        .... on
   Level shift para.    LevelShift      ....    0.2500
   Turn off err/grad.   ShiftErr        ....    0.0010
 Zerner damping         CNVZerner       .... off
 Static damping         CNVDamp         .... on
   Fraction old density DampFac         ....    0.7000
   Max. Damping (<1)    DampMax         ....    0.9800
   Min. Damping (>=0)   DampMin         ....    0.0000
   Turn off err/grad.   DampErr         ....    0.1000
 Fernandez-Rico         CNVRico         .... off

SCF Procedure:
 Maximum # iterations   MaxIter         ....   125
 SCF integral mode      SCFMode         .... Direct
   Integral package                     .... LIBINT
 Reset frequeny         DirectResetFreq ....    20
 Integral Threshold     Thresh          ....  2.500e-11 Eh
 Primitive CutOff       TCut            ....  2.500e-12 Eh

Convergence Tolerance:
 Convergence Check Mode ConvCheckMode   .... Total+1el-Energy
 Convergence forced     ConvForced      .... 1
 Energy Change          TolE            ....  1.000e-08 Eh
 1-El. energy change                    ....  1.000e-05 Eh
 Orbital Gradient       TolG            ....  1.000e-05
 Orbital Rotation angle TolX            ....  1.000e-05
 DIIS Error             TolErr          ....  5.000e-07


Diagonalization of the overlap matrix:
Smallest eigenvalue                        ... 6.210e-06
Time for diagonalization                   ...    0.448 sec
Threshold for overlap eigenvalues          ... 1.000e-08
Number of eigenvalues below threshold      ... 0
Time for construction of square roots      ...    0.369 sec
Total time needed                          ...    0.826 sec

-------------------
DFT GRID GENERATION
-------------------

General Integration Accuracy     IntAcc      ...  5.010
Radial Grid Type                 RadialGrid  ... Gauss-Chebyshev
Angular Grid (max. acc.)         AngularGrid ... Lebedev-434
Angular grid pruning method      GridPruning ... 3 (G Style)
Weight generation scheme         WeightScheme... Becke
Basis function cutoff            BFCut       ...    1.0000e-11
Integration weight cutoff        WCut        ...    1.0000e-14
Grids for H and He will be reduced by one unit

# of grid points (after initial pruning)     ... 444908 (   0.0 sec)
# of grid points (after weights+screening)   ... 390786 (   1.2 sec)
nearest neighbour list constructed           ...    0.0 sec
Grid point re-assignment to atoms done       ...    0.2 sec
Grid point division into batches done        ...    4.3 sec
Reduced shell lists constructed in    5.1 sec

Total number of grid points                  ...   390786
Total number of batches                      ...     6131
Average number of points per batch           ...       63
Average number of grid points per atom       ...     8315
Average number of shells per batch           ...   139.60 (33.56%)
Average number of basis functions per batch  ...   361.46 (33.04%)
Average number of large shells per batch     ...    95.15 (68.16%)
Average number of large basis fcns per batch ...   245.73 (67.98%)
Maximum spatial batch extension              ...  11.90, 19.97, 13.44 au
Average spatial batch extension              ...   0.05,  0.06,  0.05 au

Time for grid setup =    7.419 sec

------------------------------
INITIAL GUESS: MODEL POTENTIAL
------------------------------
Loading Hartree-Fock densities                     ... done
Calculating cut-offs                               ... done
Setting up the integral package                    ... done
Initializing the effective Hamiltonian             ... done
Starting the Coulomb interaction                   ... done (   0.6 sec)
Reading the grid                                   ... done
Mapping shells                                     ... done
Starting the XC term evaluation                    ... done (   2.2 sec)
  promolecular density results
     # of electrons  =    235.992674897
     EX              =   -221.123767387
     EC              =     -8.169910653
     EX+EC           =   -229.293678040
Transforming the Hamiltonian                       ... done (   0.2 sec)
Diagonalizing the Hamiltonian                      ... done (   0.4 sec)
Back transforming the eigenvectors                 ... done (   0.1 sec)
Now organizing SCF variables                       ... done
                      ------------------
                      INITIAL GUESS DONE (  11.2 sec)
                      ------------------
--------------------
COSX GRID GENERATION
--------------------

General Integration Accuracy     IntAcc      ...  3.340
Radial Grid Type                 RadialGrid  ... Gauss-Chebyshev
Angular Grid (max. acc.)         AngularGrid ... Lebedev-50
Angular grid pruning method      GridPruning ... 3 (G Style)
Weight generation scheme         WeightScheme... Becke
Basis function cutoff            BFCut       ...    1.0000e-11
Integration weight cutoff        WCut        ...    1.0000e-14
Grids for H and He will be reduced by one unit

# of grid points (after initial pruning)     ...  23570 (   0.0 sec)
# of grid points (after weights+screening)   ...  21550 (   0.1 sec)
nearest neighbour list constructed           ...    0.0 sec
Grid point re-assignment to atoms done       ...    0.0 sec
Grid point division into batches done        ...    0.0 sec
Reduced shell lists constructed in    0.1 sec

Total number of grid points                  ...    21550
Total number of batches                      ...      361
Average number of points per batch           ...       59
Average number of grid points per atom       ...      459
Average number of shells per batch           ...   153.53 (36.91%)
Average number of basis functions per batch  ...   401.41 (36.69%)
Average number of large shells per batch     ...   105.71 (68.85%)
Average number of large basis fcns per batch ...   276.88 (68.98%)
Maximum spatial batch extension              ...   5.80, 14.65,  8.84 au
Average spatial batch extension              ...   0.12,  0.21,  0.16 au

Overlap Fitting                  UseSFitting ... on
Constructing numerical overlap ... done (      0.1 sec)
Inverting numerical overlap    ... done (      0.2 sec)
Obtaining analytic overlap     ... done (      0.0 sec)
Final contraction and storage  ... done (      0.5 sec)


General Integration Accuracy     IntAcc      ...  3.670
Radial Grid Type                 RadialGrid  ... Gauss-Chebyshev
Angular Grid (max. acc.)         AngularGrid ... Lebedev-50
Angular grid pruning method      GridPruning ... 3 (G Style)
Weight generation scheme         WeightScheme... Becke
Basis function cutoff            BFCut       ...    1.0000e-11
Integration weight cutoff        WCut        ...    1.0000e-14
Grids for H and He will be reduced by one unit

# of grid points (after initial pruning)     ...  29532 (   0.0 sec)
# of grid points (after weights+screening)   ...  26922 (   0.1 sec)
nearest neighbour list constructed           ...    0.0 sec
Grid point re-assignment to atoms done       ...    0.0 sec
Grid point division into batches done        ...    0.0 sec
Reduced shell lists constructed in    0.1 sec

Total number of grid points                  ...    26922
Total number of batches                      ...      441
Average number of points per batch           ...       61
Average number of grid points per atom       ...      573
Average number of shells per batch           ...   154.80 (37.21%)
Average number of basis functions per batch  ...   406.20 (37.13%)
Average number of large shells per batch     ...   107.80 (69.64%)
Average number of large basis fcns per batch ...   284.30 (69.99%)
Maximum spatial batch extension              ...   5.03, 14.27,  8.98 au
Average spatial batch extension              ...   0.11,  0.19,  0.14 au

Overlap Fitting                  UseSFitting ... on
Constructing numerical overlap ... done (      0.2 sec)
Inverting numerical overlap    ... done (      0.2 sec)
Obtaining analytic overlap     ... done (      0.0 sec)
Final contraction and storage  ... done (      0.5 sec)


General Integration Accuracy     IntAcc      ...  4.010
Radial Grid Type                 RadialGrid  ... Gauss-Chebyshev
Angular Grid (max. acc.)         AngularGrid ... Lebedev-110
Angular grid pruning method      GridPruning ... 3 (G Style)
Weight generation scheme         WeightScheme... Becke
Basis function cutoff            BFCut       ...    1.0000e-11
Integration weight cutoff        WCut        ...    1.0000e-14
Grids for H and He will be reduced by one unit

# of grid points (after initial pruning)     ...  57186 (   0.0 sec)
# of grid points (after weights+screening)   ...  51604 (   0.2 sec)
nearest neighbour list constructed           ...    0.0 sec
Grid point re-assignment to atoms done       ...    0.0 sec
Grid point division into batches done        ...    0.1 sec
Reduced shell lists constructed in    0.2 sec

Total number of grid points                  ...    51604
Total number of batches                      ...      831
Average number of points per batch           ...       62
Average number of grid points per atom       ...     1098
Average number of shells per batch           ...   149.83 (36.02%)
Average number of basis functions per batch  ...   391.17 (35.76%)
Average number of large shells per batch     ...   103.03 (68.76%)
Average number of large basis fcns per batch ...   269.36 (68.86%)
Maximum spatial batch extension              ...   5.59, 14.68, 10.57 au
Average spatial batch extension              ...   0.10,  0.14,  0.12 au

Overlap Fitting                  UseSFitting ... on
Constructing numerical overlap ... done (      0.2 sec)
Inverting numerical overlap    ... done (      0.2 sec)
Obtaining analytic overlap     ... done (      0.0 sec)
Final contraction and storage  ... done (      0.5 sec)

Time for X-Grid setup             =    3.693 sec
--------------
SCF ITERATIONS
--------------
ITER       Energy         Delta-E        Max-DP      RMS-DP      [F,P]     Damp
               ***  Starting incremental Fock matrix formation  ***
  0  -2109.2700883250   0.000000000000 0.16897229  0.00071929  0.2101936 0.7000
  1  -2109.5778507925  -0.307762467482 0.15900736  0.00057946  0.1104968 0.7000
                               ***Turning on DIIS***
  2  -2109.7230116091  -0.145160816583 0.28055110  0.00109573  0.0551575 0.0000
  3  -2109.9593703721  -0.236358762989 0.11213751  0.00045167  0.0466723 0.0000
  4  -2110.0005997126  -0.041229340469 0.01753070  0.00013101  0.0096307 0.0000
  5  -2110.0024897807  -0.001890068162 0.00963938  0.00006432  0.0058660 0.0000
                      *** Initiating the SOSCF procedure ***
                           *** Shutting down DIIS ***
                      *** Re-Reading the Fockian *** 
                      *** Removing any level shift *** 
ITER      Energy       Delta-E        Grad      Rot      Max-DP    RMS-DP
  6  -2110.00291315  -0.0004233650  0.002081  0.002081  0.003523  0.000037
               *** Restarting incremental Fock matrix formation ***
  7  -2110.00306710  -0.0001539571  0.001370  0.003789  0.008803  0.000077
  8  -2110.00312707  -0.0000599719  0.000468  0.003772  0.005264  0.000050
  9  -2110.00314201  -0.0000149329  0.000187  0.000570  0.004442  0.000039
 10  -2110.00314827  -0.0000062596  0.000066  0.000164  0.000659  0.000006
 11  -2110.00314844  -0.0000001763  0.000047  0.000133  0.000456  0.000004
 12  -2110.00314872  -0.0000002776  0.000010  0.000039  0.000131  0.000001
 13  -2110.00314873  -0.0000000063  0.000006  0.000015  0.000128  0.000001
                  ***Gradient check signals convergence***
              ***Rediagonalizing the Fockian in SOSCF/NRSCF***

               *****************************************************
               *                     SUCCESS                       *
               *           SCF CONVERGED AFTER  14 CYCLES          *
               *****************************************************

Old exchange energy                            =    -69.240529947 Eh
New exchange energy                            =    -69.240992402 Eh
Exchange energy change after final integration =     -0.000462456 Eh
Total energy after final integration           =  -2110.003611254 Eh
Final COS-X integration done in                =    46.312 sec

----------------
TOTAL SCF ENERGY
----------------

Total Energy       :        -2110.00361125 Eh          -57416.11724 eV

Components:
Nuclear Repulsion  :         3119.08402835 Eh           84874.59135 eV
Electronic Energy  :        -5229.08763960 Eh         -142290.70859 eV
One Electron Energy:        -9090.57611107 Eh         -247367.15189 eV
Two Electron Energy:         3861.48847147 Eh          105076.44329 eV

Virial components:
Potential Energy   :        -4211.67878924 Eh         -114605.60629 eV
Kinetic Energy     :         2101.67517799 Eh           57189.48905 eV
Virial Ratio       :            2.00396276


DFT components:
N(Alpha)           :      117.999994639413 electrons
N(Beta)            :      117.999994639413 electrons
N(Total)           :      235.999989278826 electrons
E(XC)              :     -164.281141628175 Eh       

---------------
SCF CONVERGENCE
---------------

  Last Energy change         ...   -7.0713e-08  Tolerance :   1.0000e-08
  Last MAX-Density change    ...    1.7613e-14  Tolerance :   1.0000e-07
  Last RMS-Density change    ...    8.5325e-17  Tolerance :   5.0000e-09
  Last Orbital Gradient      ...    2.4225e-06  Tolerance :   1.0000e-05
  Last Orbital Rotation      ...    7.3918e-06  Tolerance :   1.0000e-05

             **** THE GBW FILE WAS UPDATED (total.gbw) ****
             **** DENSITY FILE WAS UPDATED (total.scfp.tmp) ****
             **** ENERGY FILE WAS UPDATED (total.en.tmp) ****
----------------
ORBITAL ENERGIES
----------------

  NO   OCC          E(Eh)            E(eV) 
   0   2.0000     -88.988307     -2421.4950 
   1   2.0000     -88.984544     -2421.3925 
   2   2.0000     -19.293210      -524.9949 
   3   2.0000     -19.275867      -524.5230 
   4   2.0000     -19.274169      -524.4768 
   5   2.0000     -14.468203      -393.6998 
   6   2.0000     -14.422666      -392.4607 
   7   2.0000     -14.422223      -392.4486 
   8   2.0000     -10.367772      -282.1214 
   9   2.0000     -10.362745      -281.9846 
  10   2.0000     -10.361993      -281.9642 
  11   2.0000     -10.355668      -281.7921 
  12   2.0000     -10.352007      -281.6924 
  13   2.0000     -10.331614      -281.1375 
  14   2.0000     -10.329099      -281.0691 
  15   2.0000     -10.325720      -280.9771 
  16   2.0000     -10.324126      -280.9337 
  17   2.0000     -10.321830      -280.8713 
  18   2.0000     -10.311038      -280.5776 
  19   2.0000     -10.309285      -280.5299 
  20   2.0000     -10.307679      -280.4862 
  21   2.0000     -10.302747      -280.3520 
  22   2.0000     -10.295280      -280.1488 
  23   2.0000     -10.289765      -279.9987 
  24   2.0000     -10.289755      -279.9985 
  25   2.0000     -10.288785      -279.9721 
  26   2.0000     -10.288785      -279.9721 
  27   2.0000     -10.286294      -279.9043 
  28   2.0000     -10.284500      -279.8555 
  29   2.0000     -10.283228      -279.8208 
  30   2.0000     -10.281926      -279.7854 
  31   2.0000     -10.274789      -279.5912 
  32   2.0000      -8.084830      -219.9994 
  33   2.0000      -8.081167      -219.8997 
  34   2.0000      -6.037995      -164.3022 
  35   2.0000      -6.034226      -164.1996 
  36   2.0000      -6.033984      -164.1931 
  37   2.0000      -6.031956      -164.1379 
  38   2.0000      -6.030397      -164.0954 
  39   2.0000      -6.028324      -164.0390 
  40   2.0000      -1.213868       -33.0310 
  41   2.0000      -1.193405       -32.4742 
  42   2.0000      -1.174135       -31.9498 
  43   2.0000      -1.104792       -30.0629 
  44   2.0000      -1.083408       -29.4810 
  45   2.0000      -1.064206       -28.9585 
  46   2.0000      -0.982855       -26.7448 
  47   2.0000      -0.976987       -26.5852 
  48   2.0000      -0.965251       -26.2658 
  49   2.0000      -0.919653       -25.0250 
  50   2.0000      -0.914048       -24.8725 
  51   2.0000      -0.906658       -24.6714 
  52   2.0000      -0.898983       -24.4626 
  53   2.0000      -0.876617       -23.8540 
  54   2.0000      -0.869059       -23.6483 
  55   2.0000      -0.864337       -23.5198 
  56   2.0000      -0.843805       -22.9611 
  57   2.0000      -0.838787       -22.8246 
  58   2.0000      -0.817638       -22.2490 
  59   2.0000      -0.766135       -20.8476 
  60   2.0000      -0.762692       -20.7539 
  61   2.0000      -0.750746       -20.4288 
  62   2.0000      -0.727593       -19.7988 
  63   2.0000      -0.716696       -19.5023 
  64   2.0000      -0.714788       -19.4504 
  65   2.0000      -0.701873       -19.0989 
  66   2.0000      -0.698495       -19.0070 
  67   2.0000      -0.679452       -18.4888 
  68   2.0000      -0.672545       -18.3009 
  69   2.0000      -0.665207       -18.1012 
  70   2.0000      -0.643025       -17.4976 
  71   2.0000      -0.635617       -17.2960 
  72   2.0000      -0.630432       -17.1549 
  73   2.0000      -0.619270       -16.8512 
  74   2.0000      -0.612097       -16.6560 
  75   2.0000      -0.600660       -16.3448 
  76   2.0000      -0.578496       -15.7417 
  77   2.0000      -0.573220       -15.5981 
  78   2.0000      -0.568605       -15.4725 
  79   2.0000      -0.564518       -15.3613 
  80   2.0000      -0.557094       -15.1593 
  81   2.0000      -0.548673       -14.9302 
  82   2.0000      -0.540823       -14.7166 
  83   2.0000      -0.537676       -14.6309 
  84   2.0000      -0.532167       -14.4810 
  85   2.0000      -0.528765       -14.3884 
  86   2.0000      -0.526734       -14.3332 
  87   2.0000      -0.524213       -14.2646 
  88   2.0000      -0.520357       -14.1596 
  89   2.0000      -0.515904       -14.0385 
  90   2.0000      -0.512010       -13.9325 
  91   2.0000      -0.507045       -13.7974 
  92   2.0000      -0.500556       -13.6208 
  93   2.0000      -0.491923       -13.3859 
  94   2.0000      -0.479814       -13.0564 
  95   2.0000      -0.478426       -13.0186 
  96   2.0000      -0.471661       -12.8345 
  97   2.0000      -0.468191       -12.7401 
  98   2.0000      -0.464028       -12.6268 
  99   2.0000      -0.458149       -12.4669 
 100   2.0000      -0.453611       -12.3434 
 101   2.0000      -0.448627       -12.2078 
 102   2.0000      -0.442779       -12.0486 
 103   2.0000      -0.439546       -11.9607 
 104   2.0000      -0.434028       -11.8105 
 105   2.0000      -0.432026       -11.7560 
 106   2.0000      -0.390646       -10.6300 
 107   2.0000      -0.377963       -10.2849 
 108   2.0000      -0.376124       -10.2348 
 109   2.0000      -0.369042       -10.0421 
 110   2.0000      -0.365366        -9.9421 
 111   2.0000      -0.354177        -9.6376 
 112   2.0000      -0.347293        -9.4503 
 113   2.0000      -0.323871        -8.8130 
 114   2.0000      -0.318398        -8.6640 
 115   2.0000      -0.298796        -8.1306 
 116   2.0000      -0.292239        -7.9522 
 117   2.0000      -0.275024        -7.4838 
 118   0.0000      -0.003659        -0.0996 
 119   0.0000       0.016815         0.4576 
 120   0.0000       0.036495         0.9931 
 121   0.0000       0.059372         1.6156 
 122   0.0000       0.062398         1.6979 
 123   0.0000       0.074444         2.0257 
 124   0.0000       0.081781         2.2254 
 125   0.0000       0.086657         2.3581 
 126   0.0000       0.091595         2.4924 
 127   0.0000       0.102643         2.7931 
 128   0.0000       0.111095         3.0231 
 129   0.0000       0.113494         3.0883 
 130   0.0000       0.121929         3.3179 
 131   0.0000       0.133714         3.6386 
 132   0.0000       0.137880         3.7519 
 133   0.0000       0.139594         3.7986 
 134   0.0000       0.143653         3.9090 
 135   0.0000       0.149790         4.0760 
 136   0.0000       0.157972         4.2986 
 137   0.0000       0.160274         4.3613 
 138   0.0000       0.167010         4.5446 
 139   0.0000       0.169039         4.5998 
 140   0.0000       0.170380         4.6363 
 141   0.0000       0.171780         4.6744 
 142   0.0000       0.175998         4.7892 
 143   0.0000       0.181888         4.9494 
 144   0.0000       0.187707         5.1078 
 145   0.0000       0.189210         5.1487 
 146   0.0000       0.195182         5.3112 
 147   0.0000       0.201710         5.4888 
 148   0.0000       0.210297         5.7225 
 149   0.0000       0.213117         5.7992 
 150   0.0000       0.218441         5.9441 
 151   0.0000       0.225510         6.1365 
 152   0.0000       0.234437         6.3794 
 153   0.0000       0.236089         6.4243 
 154   0.0000       0.241859         6.5813 
 155   0.0000       0.249801         6.7974 
 156   0.0000       0.251298         6.8382 
 157   0.0000       0.253319         6.8932 
 158   0.0000       0.261466         7.1148 
 159   0.0000       0.264424         7.1954 
 160   0.0000       0.268001         7.2927 
 161   0.0000       0.274603         7.4723 
 162   0.0000       0.276811         7.5324 
 163   0.0000       0.278395         7.5755 
 164   0.0000       0.280575         7.6348 
 165   0.0000       0.284597         7.7443 
 166   0.0000       0.287026         7.8104 
 167   0.0000       0.291134         7.9222 
 168   0.0000       0.292693         7.9646 
 169   0.0000       0.293706         7.9922 
 170   0.0000       0.296912         8.0794 
 171   0.0000       0.298782         8.1303 
 172   0.0000       0.303291         8.2530 
 173   0.0000       0.305721         8.3191 
 174   0.0000       0.307219         8.3598 
 175   0.0000       0.313167         8.5217 
 176   0.0000       0.321498         8.7484 
 177   0.0000       0.324941         8.8421 
 178   0.0000       0.328123         8.9287 
 179   0.0000       0.331166         9.0115 
 180   0.0000       0.331695         9.0259 
 181   0.0000       0.335746         9.1361 
 182   0.0000       0.337331         9.1793 
 183   0.0000       0.345252         9.3948 
 184   0.0000       0.347703         9.4615 
 185   0.0000       0.350992         9.5510 
 186   0.0000       0.354705         9.6520 
 187   0.0000       0.357164         9.7189 
 188   0.0000       0.363070         9.8796 
 189   0.0000       0.368803        10.0356 
 190   0.0000       0.370274        10.0757 
 191   0.0000       0.372710        10.1420 
 192   0.0000       0.376365        10.2414 
 193   0.0000       0.379483        10.3263 
 194   0.0000       0.382250        10.4016 
 195   0.0000       0.386091        10.5061 
 196   0.0000       0.388486        10.5712 
 197   0.0000       0.390446        10.6246 
 198   0.0000       0.395804        10.7704 
 199   0.0000       0.399061        10.8590 
 200   0.0000       0.402044        10.9402 
 201   0.0000       0.403775        10.9873 
 202   0.0000       0.407687        11.0937 
 203   0.0000       0.411104        11.1867 
 204   0.0000       0.414741        11.2857 
 205   0.0000       0.418797        11.3961 
 206   0.0000       0.421880        11.4799 
 207   0.0000       0.422776        11.5043 
 208   0.0000       0.424775        11.5587 
 209   0.0000       0.432099        11.7580 
 210   0.0000       0.435390        11.8476 
 211   0.0000       0.437452        11.9037 
 212   0.0000       0.439245        11.9525 
 213   0.0000       0.444869        12.1055 
 214   0.0000       0.447262        12.1706 
 215   0.0000       0.448455        12.2031 
 216   0.0000       0.452460        12.3121 
 217   0.0000       0.453331        12.3358 
 218   0.0000       0.455750        12.4016 
 219   0.0000       0.459051        12.4914 
 220   0.0000       0.461901        12.5690 
 221   0.0000       0.466167        12.6851 
 222   0.0000       0.467080        12.7099 
 223   0.0000       0.474289        12.9061 
 224   0.0000       0.476495        12.9661 
 225   0.0000       0.478417        13.0184 
 226   0.0000       0.483312        13.1516 
 227   0.0000       0.483547        13.1580 
 228   0.0000       0.488251        13.2860 
 229   0.0000       0.489007        13.3066 
 230   0.0000       0.490698        13.3526 
 231   0.0000       0.495485        13.4828 
 232   0.0000       0.501830        13.6555 
 233   0.0000       0.505286        13.7495 
 234   0.0000       0.506397        13.7798 
 235   0.0000       0.509949        13.8764 
 236   0.0000       0.512130        13.9358 
 237   0.0000       0.514088        13.9890 
 238   0.0000       0.516543        14.0558 
 239   0.0000       0.517065        14.0701 
 240   0.0000       0.522702        14.2235 
 241   0.0000       0.528184        14.3726 
 242   0.0000       0.530332        14.4311 
 243   0.0000       0.535463        14.5707 
 244   0.0000       0.536585        14.6012 
 245   0.0000       0.539511        14.6808 
 246   0.0000       0.542424        14.7601 
 247   0.0000       0.546497        14.8709 
 248   0.0000       0.550484        14.9794 
 249   0.0000       0.551973        15.0199 
 250   0.0000       0.558228        15.1902 
 251   0.0000       0.560566        15.2538 
 252   0.0000       0.563622        15.3369 
 253   0.0000       0.566845        15.4246 
 254   0.0000       0.574323        15.6281 
 255   0.0000       0.574673        15.6377 
 256   0.0000       0.577755        15.7215 
 257   0.0000       0.583382        15.8746 
 258   0.0000       0.590228        16.0609 
 259   0.0000       0.592473        16.1220 
 260   0.0000       0.593910        16.1611 
 261   0.0000       0.596507        16.2318 
 262   0.0000       0.599069        16.3015 
 263   0.0000       0.601577        16.3698 
 264   0.0000       0.611336        16.6353 
 265   0.0000       0.614255        16.7147 
 266   0.0000       0.623046        16.9539 
 267   0.0000       0.625213        17.0129 
 268   0.0000       0.631765        17.1912 
 269   0.0000       0.640714        17.4347 
 270   0.0000       0.645468        17.5641 
 271   0.0000       0.647528        17.6201 
 272   0.0000       0.658572        17.9206 
 273   0.0000       0.661908        18.0114 
 274   0.0000       0.667216        18.1559 
 275   0.0000       0.671215        18.2647 
 276   0.0000       0.675073        18.3697 
 277   0.0000       0.678007        18.4495 
 278   0.0000       0.681627        18.5480 
 279   0.0000       0.685227        18.6460 
 280   0.0000       0.688574        18.7371 
 281   0.0000       0.690828        18.7984 
 282   0.0000       0.693412        18.8687 
 283   0.0000       0.696339        18.9483 
 284   0.0000       0.701509        19.0890 
 285   0.0000       0.703720        19.1492 
 286   0.0000       0.707531        19.2529 
 287   0.0000       0.712763        19.3953 
 288   0.0000       0.715046        19.4574 
 289   0.0000       0.720181        19.5971 
 290   0.0000       0.723932        19.6992 
 291   0.0000       0.726103        19.7583 
 292   0.0000       0.729349        19.8466 
 293   0.0000       0.732683        19.9373 
 294   0.0000       0.735752        20.0208 
 295   0.0000       0.740979        20.1631 
 296   0.0000       0.745103        20.2753 
 297   0.0000       0.749016        20.3818 
 298   0.0000       0.750940        20.4341 
 299   0.0000       0.755826        20.5671 
 300   0.0000       0.758921        20.6513 
 301   0.0000       0.764945        20.8152 
 302   0.0000       0.769907        20.9502 
 303   0.0000       0.773593        21.0505 
 304   0.0000       0.779375        21.2079 
 305   0.0000       0.780260        21.2319 
 306   0.0000       0.782521        21.2935 
 307   0.0000       0.785126        21.3644 
 308   0.0000       0.788852        21.4658 
 309   0.0000       0.796238        21.6667 
 310   0.0000       0.797841        21.7103 
 311   0.0000       0.799638        21.7593 
 312   0.0000       0.809533        22.0285 
 313   0.0000       0.811099        22.0711 
 314   0.0000       0.813273        22.1303 
 315   0.0000       0.814533        22.1646 
 316   0.0000       0.821258        22.3476 
 317   0.0000       0.828144        22.5349 
 318   0.0000       0.831695        22.6316 
 319   0.0000       0.832066        22.6417 
 320   0.0000       0.836638        22.7661 
 321   0.0000       0.840822        22.8799 
 322   0.0000       0.841403        22.8957 
 323   0.0000       0.848734        23.0952 
 324   0.0000       0.853891        23.2356 
 325   0.0000       0.857058        23.3217 
 326   0.0000       0.864038        23.5117 
 327   0.0000       0.866758        23.5857 
 328   0.0000       0.870699        23.6929 
 329   0.0000       0.873110        23.7585 
 330   0.0000       0.878122        23.8949 
 331   0.0000       0.883274        24.0351 
 332   0.0000       0.891039        24.2464 
 333   0.0000       0.897493        24.4220 
 334   0.0000       0.902344        24.5540 
 335   0.0000       0.913312        24.8525 
 336   0.0000       0.917162        24.9572 
 337   0.0000       0.919907        25.0319 
 338   0.0000       0.923840        25.1390 
 339   0.0000       0.929378        25.2897 
 340   0.0000       0.932163        25.3655 
 341   0.0000       0.935788        25.4641 
 342   0.0000       0.938934        25.5497 
 343   0.0000       0.946692        25.7608 
 344   0.0000       0.949325        25.8324 
 345   0.0000       0.955065        25.9886 
 346   0.0000       0.961828        26.1727 
 347   0.0000       0.965055        26.2605 
 348   0.0000       0.970713        26.4145 
 349   0.0000       0.972294        26.4575 
 350   0.0000       0.976592        26.5744 
 351   0.0000       0.981525        26.7086 
 352   0.0000       0.988772        26.9058 
 353   0.0000       0.990032        26.9401 
 354   0.0000       0.996807        27.1245 
 355   0.0000       1.001988        27.2655 
 356   0.0000       1.005554        27.3625 
 357   0.0000       1.017978        27.7006 
 358   0.0000       1.019066        27.7302 
 359   0.0000       1.028988        28.0002 
 360   0.0000       1.032172        28.0868 
 361   0.0000       1.038771        28.2664 
 362   0.0000       1.043330        28.3904 
 363   0.0000       1.051103        28.6020 
 364   0.0000       1.064151        28.9570 
 365   0.0000       1.064997        28.9800 
 366   0.0000       1.072512        29.1845 
 367   0.0000       1.076366        29.2894 
 368   0.0000       1.079709        29.3804 
 369   0.0000       1.084373        29.5073 
 370   0.0000       1.091881        29.7116 
 371   0.0000       1.094298        29.7774 
 372   0.0000       1.101881        29.9837 
 373   0.0000       1.104742        30.0615 
 374   0.0000       1.113672        30.3046 
 375   0.0000       1.120233        30.4831 
 376   0.0000       1.129796        30.7433 
 377   0.0000       1.140848        31.0441 
 378   0.0000       1.146002        31.1843 
 379   0.0000       1.147822        31.2338 
 380   0.0000       1.159308        31.5464 
 381   0.0000       1.169746        31.8304 
 382   0.0000       1.172348        31.9012 
 383   0.0000       1.177747        32.0481 
 384   0.0000       1.180972        32.1359 
 385   0.0000       1.188861        32.3505 
 386   0.0000       1.194047        32.4917 
 387   0.0000       1.199981        32.6531 
 388   0.0000       1.208372        32.8815 
 389   0.0000       1.210286        32.9336 
 390   0.0000       1.227132        33.3920 
 391   0.0000       1.229278        33.4503 
 392   0.0000       1.234430        33.5905 
 393   0.0000       1.240041        33.7432 
 394   0.0000       1.249636        34.0043 
 395   0.0000       1.254009        34.1233 
 396   0.0000       1.263548        34.3829 
 397   0.0000       1.267977        34.5034 
 398   0.0000       1.275690        34.7133 
 399   0.0000       1.284416        34.9507 
 400   0.0000       1.290539        35.1174 
 401   0.0000       1.295742        35.2589 
 402   0.0000       1.302648        35.4468 
 403   0.0000       1.305042        35.5120 
 404   0.0000       1.311055        35.6756 
 405   0.0000       1.316805        35.8321 
 406   0.0000       1.319847        35.9149 
 407   0.0000       1.325879        36.0790 
 408   0.0000       1.331413        36.2296 
 409   0.0000       1.337316        36.3902 
 410   0.0000       1.342078        36.5198 
 411   0.0000       1.343470        36.5577 
 412   0.0000       1.352413        36.8010 
 413   0.0000       1.357972        36.9523 
 414   0.0000       1.361797        37.0564 
 415   0.0000       1.370766        37.3004 
 416   0.0000       1.381098        37.5816 
 417   0.0000       1.383861        37.6568 
 418   0.0000       1.391431        37.8628 
 419   0.0000       1.395847        37.9829 
 420   0.0000       1.403094        38.1801 
 421   0.0000       1.405815        38.2542 
 422   0.0000       1.406703        38.2783 
 423   0.0000       1.413298        38.4578 
 424   0.0000       1.422386        38.7051 
 425   0.0000       1.433817        39.0162 
 426   0.0000       1.438112        39.1330 
 427   0.0000       1.447262        39.3820 
 428   0.0000       1.449680        39.4478 
 429   0.0000       1.454177        39.5702 
 430   0.0000       1.460150        39.7327 
 431   0.0000       1.469654        39.9913 
 432   0.0000       1.472195        40.0605 
 433   0.0000       1.476757        40.1846 
 434   0.0000       1.485959        40.4350 
 435   0.0000       1.490887        40.5691 
 436   0.0000       1.496949        40.7340 
 437   0.0000       1.504351        40.9355 
 438   0.0000       1.507198        41.0130 
 439   0.0000       1.514938        41.2236 
 440   0.0000       1.523155        41.4472 
 441   0.0000       1.524403        41.4811 
 442   0.0000       1.532909        41.7126 
 443   0.0000       1.542258        41.9670 
 444   0.0000       1.545835        42.0643 
 445   0.0000       1.549092        42.1529 
 446   0.0000       1.554754        42.3070 
 447   0.0000       1.558058        42.3969 
 448   0.0000       1.563466        42.5441 
 449   0.0000       1.569016        42.6951 
 450   0.0000       1.571541        42.7638 
 451   0.0000       1.576951        42.9110 
 452   0.0000       1.578519        42.9537 
 453   0.0000       1.584411        43.1140 
 454   0.0000       1.589302        43.2471 
 455   0.0000       1.592568        43.3360 
 456   0.0000       1.603010        43.6201 
 457   0.0000       1.606724        43.7212 
 458   0.0000       1.608727        43.7757 
 459   0.0000       1.613515        43.9060 
 460   0.0000       1.617787        44.0222 
 461   0.0000       1.623647        44.1817 
 462   0.0000       1.625298        44.2266 
 463   0.0000       1.631084        44.3840 
 464   0.0000       1.636278        44.5254 
 465   0.0000       1.644020        44.7360 
 466   0.0000       1.645281        44.7704 
 467   0.0000       1.648901        44.8689 
 468   0.0000       1.651897        44.9504 
 469   0.0000       1.658783        45.1378 
 470   0.0000       1.660529        45.1853 
 471   0.0000       1.667714        45.3808 
 472   0.0000       1.673804        45.5465 
 473   0.0000       1.683555        45.8119 
 474   0.0000       1.684934        45.8494 
 475   0.0000       1.686749        45.8988 
 476   0.0000       1.690505        46.0010 
 477   0.0000       1.695169        46.1279 
 478   0.0000       1.698549        46.2199 
 479   0.0000       1.702622        46.3307 
 480   0.0000       1.708291        46.4850 
 481   0.0000       1.715287        46.6753 
 482   0.0000       1.716014        46.6951 
 483   0.0000       1.720192        46.8088 
 484   0.0000       1.729480        47.0615 
 485   0.0000       1.734878        47.2084 
 486   0.0000       1.737885        47.2902 
 487   0.0000       1.748026        47.5662 
 488   0.0000       1.751613        47.6638 
 489   0.0000       1.754306        47.7371 
 490   0.0000       1.762203        47.9520 
 491   0.0000       1.764899        48.0253 
 492   0.0000       1.773747        48.2661 
 493   0.0000       1.776918        48.3524 
 494   0.0000       1.780408        48.4474 
 495   0.0000       1.787204        48.6323 
 496   0.0000       1.788704        48.6731 
 497   0.0000       1.798020        48.9266 
 498   0.0000       1.801173        49.0124 
 499   0.0000       1.802625        49.0519 
 500   0.0000       1.807210        49.1767 
 501   0.0000       1.815348        49.3981 
 502   0.0000       1.817768        49.4640 
 503   0.0000       1.819316        49.5061 
 504   0.0000       1.827851        49.7384 
 505   0.0000       1.833295        49.8865 
 506   0.0000       1.837277        49.9949 
 507   0.0000       1.839334        50.0508 
 508   0.0000       1.843439        50.1625 
 509   0.0000       1.846318        50.2409 
 510   0.0000       1.857091        50.5340 
 511   0.0000       1.861314        50.6489 
 512   0.0000       1.868752        50.8513 
 513   0.0000       1.878012        51.1033 
 514   0.0000       1.882102        51.2146 
 515   0.0000       1.893388        51.5217 
 516   0.0000       1.899960        51.7005 
 517   0.0000       1.905023        51.8383 
 518   0.0000       1.907043        51.8933 
 519   0.0000       1.911607        52.0175 
 520   0.0000       1.918181        52.1964 
 521   0.0000       1.925222        52.3879 
 522   0.0000       1.931506        52.5590 
 523   0.0000       1.938979        52.7623 
 524   0.0000       1.942989        52.8714 
 525   0.0000       1.950910        53.0870 
 526   0.0000       1.954006        53.1712 
 527   0.0000       1.960198        53.3397 
 528   0.0000       1.965264        53.4776 
 529   0.0000       1.970957        53.6325 
 530   0.0000       1.971607        53.6502 
 531   0.0000       1.977498        53.8105 
 532   0.0000       1.992137        54.2088 
 533   0.0000       1.996217        54.3198 
 534   0.0000       2.000524        54.4370 
 535   0.0000       2.008609        54.6570 
 536   0.0000       2.009695        54.6866 
 537   0.0000       2.026205        55.1358 
 538   0.0000       2.027781        55.1787 
 539   0.0000       2.039650        55.5017 
 540   0.0000       2.044492        55.6335 
 541   0.0000       2.045472        55.6601 
 542   0.0000       2.053258        55.8720 
 543   0.0000       2.058191        56.0062 
 544   0.0000       2.064042        56.1654 
 545   0.0000       2.067749        56.2663 
 546   0.0000       2.070256        56.3345 
 547   0.0000       2.073619        56.4260 
 548   0.0000       2.077546        56.5329 
 549   0.0000       2.084947        56.7343 
 550   0.0000       2.088625        56.8344 
 551   0.0000       2.099496        57.1302 
 552   0.0000       2.105809        57.3020 
 553   0.0000       2.110813        57.4381 
 554   0.0000       2.120865        57.7117 
 555   0.0000       2.127547        57.8935 
 556   0.0000       2.135535        58.1109 
 557   0.0000       2.141380        58.2699 
 558   0.0000       2.152301        58.5671 
 559   0.0000       2.157079        58.6971 
 560   0.0000       2.161888        58.8280 
 561   0.0000       2.169807        59.0434 
 562   0.0000       2.173738        59.1504 
 563   0.0000       2.179293        59.3016 
 564   0.0000       2.183577        59.4181 
 565   0.0000       2.184728        59.4495 
 566   0.0000       2.190377        59.6032 
 567   0.0000       2.196599        59.7725 
 568   0.0000       2.202913        59.9443 
 569   0.0000       2.206638        60.0457 
 570   0.0000       2.214517        60.2601 
 571   0.0000       2.223403        60.5019 
 572   0.0000       2.232014        60.7362 
 573   0.0000       2.235496        60.8309 
 574   0.0000       2.238309        60.9075 
 575   0.0000       2.251379        61.2631 
 576   0.0000       2.258120        61.4466 
 577   0.0000       2.260180        61.5026 
 578   0.0000       2.265928        61.6590 
 579   0.0000       2.270164        61.7743 
 580   0.0000       2.278974        62.0140 
 581   0.0000       2.281128        62.0726 
 582   0.0000       2.288092        62.2621 
 583   0.0000       2.291504        62.3550 
 584   0.0000       2.298568        62.5472 
 585   0.0000       2.307688        62.7954 
 586   0.0000       2.311708        62.9048 
 587   0.0000       2.314901        62.9917 
 588   0.0000       2.320839        63.1532 
 589   0.0000       2.326683        63.3123 
 590   0.0000       2.330420        63.4139 
 591   0.0000       2.334769        63.5323 
 592   0.0000       2.348046        63.8936 
 593   0.0000       2.353841        64.0513 
 594   0.0000       2.355351        64.0924 
 595   0.0000       2.363378        64.3108 
 596   0.0000       2.383458        64.8572 
 597   0.0000       2.384433        64.8837 
 598   0.0000       2.388756        65.0013 
 599   0.0000       2.392801        65.1114 
 600   0.0000       2.402944        65.3874 
 601   0.0000       2.412954        65.6598 
 602   0.0000       2.419275        65.8318 
 603   0.0000       2.427900        66.0665 
 604   0.0000       2.432678        66.1965 
 605   0.0000       2.446426        66.5706 
 606   0.0000       2.452370        66.7324 
 607   0.0000       2.458211        66.8913 
 608   0.0000       2.463409        67.0328 
 609   0.0000       2.478049        67.4312 
 610   0.0000       2.488477        67.7149 
 611   0.0000       2.502676        68.1013 
 612   0.0000       2.507208        68.2246 
 613   0.0000       2.517254        68.4980 
 614   0.0000       2.520402        68.5836 
 615   0.0000       2.536844        69.0310 
 616   0.0000       2.542714        69.1908 
 617   0.0000       2.549651        69.3795 
 618   0.0000       2.562871        69.7393 
 619   0.0000       2.567828        69.8741 
 620   0.0000       2.582045        70.2610 
 621   0.0000       2.585707        70.3607 
 622   0.0000       2.588656        70.4409 
 623   0.0000       2.596932        70.6661 
 624   0.0000       2.616090        71.1874 
 625   0.0000       2.624372        71.4128 
 626   0.0000       2.631115        71.5963 
 627   0.0000       2.642767        71.9133 
 628   0.0000       2.645101        71.9768 
 629   0.0000       2.651787        72.1588 
 630   0.0000       2.660596        72.3985 
 631   0.0000       2.664067        72.4930 
 632   0.0000       2.671276        72.6891 
 633   0.0000       2.673957        72.7621 
 634   0.0000       2.691181        73.2308 
 635   0.0000       2.691479        73.2389 
 636   0.0000       2.696397        73.3727 
 637   0.0000       2.704145        73.5835 
 638   0.0000       2.712248        73.8040 
 639   0.0000       2.714489        73.8650 
 640   0.0000       2.718953        73.9865 
 641   0.0000       2.725710        74.1703 
 642   0.0000       2.728755        74.2532 
 643   0.0000       2.734738        74.4160 
 644   0.0000       2.739322        74.5407 
 645   0.0000       2.743360        74.6506 
 646   0.0000       2.744722        74.6877 
 647   0.0000       2.749994        74.8312 
 648   0.0000       2.763775        75.2061 
 649   0.0000       2.765484        75.2526 
 650   0.0000       2.769991        75.3753 
 651   0.0000       2.779367        75.6304 
 652   0.0000       2.782258        75.7091 
 653   0.0000       2.787069        75.8400 
 654   0.0000       2.791220        75.9530 
 655   0.0000       2.792901        75.9987 
 656   0.0000       2.802327        76.2552 
 657   0.0000       2.808052        76.4110 
 658   0.0000       2.813307        76.5540 
 659   0.0000       2.819610        76.7255 
 660   0.0000       2.823602        76.8341 
 661   0.0000       2.831543        77.0502 
 662   0.0000       2.835873        77.1680 
 663   0.0000       2.840144        77.2842 
 664   0.0000       2.843630        77.3791 
 665   0.0000       2.847773        77.4918 
 666   0.0000       2.851483        77.5928 
 667   0.0000       2.859599        77.8136 
 668   0.0000       2.861712        77.8712 
 669   0.0000       2.871386        78.1344 
 670   0.0000       2.880493        78.3822 
 671   0.0000       2.883862        78.4739 
 672   0.0000       2.884204        78.4832 
 673   0.0000       2.889526        78.6280 
 674   0.0000       2.894956        78.7758 
 675   0.0000       2.899047        78.8871 
 676   0.0000       2.904964        79.0481 
 677   0.0000       2.912470        79.2523 
 678   0.0000       2.919677        79.4485 
 679   0.0000       2.922521        79.5258 
 680   0.0000       2.924877        79.5899 
 681   0.0000       2.933760        79.8317 
 682   0.0000       2.937767        79.9407 
 683   0.0000       2.943519        80.0972 
 684   0.0000       2.949419        80.2578 
 685   0.0000       2.955756        80.4302 
 686   0.0000       2.960246        80.5524 
 687   0.0000       2.963523        80.6415 
 688   0.0000       2.968108        80.7663 
 689   0.0000       2.973364        80.9094 
 690   0.0000       2.979735        81.0827 
 691   0.0000       2.985560        81.2412 
 692   0.0000       2.992407        81.4275 
 693   0.0000       2.994231        81.4772 
 694   0.0000       2.995147        81.5021 
 695   0.0000       2.999241        81.6135 
 696   0.0000       3.007508        81.8385 
 697   0.0000       3.013556        82.0030 
[...]
 117   8.549     145.0   0.042509   0.040589  -23.052706  -21.873010     0.06 (  66->  81)    0.04 (  60->  73)    0.03 (  66->  74)
 118   8.567     144.7   0.020294   0.019806  -35.594646  -35.170330     0.13 (  67->  96)    0.08 (  67->  97)    0.04 (  67-> 101)
 119   8.576     144.6   0.180527   0.168469   2.648821   2.385695     0.05 (  67->  96)    0.05 (  62->  75)    0.04 (  62->  74)
 120   8.594     144.3   0.008917   0.007204  -7.764754  -6.695473     0.03 (  70-> 104)    0.03 (  71-> 104)    0.03 (  65->  75)
 121   8.606     144.1   0.005818   0.006562  -14.906787  -15.765639     0.07 (  64->  84)    0.07 (  64->  75)    0.05 (  64->  81)
 122   8.616     143.9   0.005839   0.004718   0.030467  -0.202388     0.04 (  68->  96)    0.04 (  70-> 100)    0.03 (  71-> 104)
 123   8.639     143.5   0.023202   0.022061   0.438413  -0.046391     0.04 (  70->  98)    0.04 (  71->  99)    0.02 (  70->  87)
 124   8.648     143.4   0.005493   0.004535   3.307791   2.184105     0.29 (  70->  77)    0.06 (  68->  77)    0.04 (  71->  77)
 125   8.652     143.3   0.017323   0.017278  -3.526306  -2.440100     0.08 (  53->  73)    0.06 (  65->  83)    0.05 (  65->  84)
 126   8.659     143.2   0.013358   0.011329   7.540946   7.327654     0.10 (  70->  77)    0.04 (  65->  83)    0.03 (  63->  75)
 127   8.684     142.8   0.060161   0.055203   6.607586   8.085131     0.06 (  65->  91)    0.03 (  70->  77)    0.02 (  71-> 101)
 128   8.693     142.6   0.013891   0.011205  -37.078744  -36.999326     0.06 (  65->  91)    0.03 (  65->  88)    0.02 (  59->  78)
 129   8.712     142.3   0.050725   0.047958  12.457282  11.465487     0.07 (  69->  99)    0.05 (  62->  82)    0.03 (  71-> 101)
 130   8.729     142.0   0.087780   0.078502  49.114127  46.457333     0.09 (  60->  74)    0.03 (  66->  81)    0.02 (  51->  72)
 131   8.769     141.4   0.030210   0.027225   0.069899   0.383388     0.05 (  51->  72)    0.03 (  63->  79)    0.03 (  59->  75)
 132   8.770     141.4   0.031138   0.028595  12.079006  13.723201     0.37 (  67->  75)    0.06 (  67->  78)    0.05 (  67->  80)
 133   8.782     141.2   0.009601   0.008117  -0.859074  -1.382545     0.07 (  69->  77)    0.06 (  67->  75)    0.05 (  70->  79)
 134   8.806     140.8   0.008842   0.007906  26.752890  26.943398     0.06 (  69->  77)    0.03 (  67->  75)    0.02 (  68->  95)
 135   8.820     140.6   0.032688   0.032254  -14.140352  -13.519172     0.06 (  69->  77)    0.05 (  69->  79)    0.02 (  63->  91)
 136   8.827     140.5   0.035696   0.038122  -5.232047  -7.465079     0.06 (  69->  99)    0.05 (  64->  79)    0.04 (  62->  82)
 137   8.833     140.4   0.056969   0.055542   5.721554   8.032566     0.16 (  69->  77)    0.04 (  64->  79)    0.03 (  69->  79)
 138   8.846     140.2   0.007322   0.007884  -24.202055  -24.678487     0.07 (  69->  99)    0.04 (  69->  79)    0.03 (  63->  79)
 139   8.859     140.0   0.006852   0.006247  -3.797391  -3.817416     0.15 (  69->  77)    0.06 (  69->  97)    0.04 (  69->  99)
 140   8.877     139.7   0.003300   0.003888  -12.532788  -14.357483     0.04 (  62->  74)    0.03 (  66->  80)    0.03 (  66->  78)
 141   8.879     139.6   0.016361   0.017185  -14.614792  -15.006282     0.06 (  48->  73)    0.05 (  54->  76)    0.04 (  65->  92)
 142   8.889     139.5   0.062918   0.058112  -26.138404  -28.094513     0.07 (  52->  74)    0.05 (  46->  72)    0.03 (  57->  74)
 143   8.891     139.4   0.213273   0.197610  22.784504  19.418712     0.07 (  63->  79)    0.06 (  69->  77)    0.04 (  58->  76)
 144   8.915     139.1   0.081627   0.077879  -14.435522  -20.937347     0.05 (  61->  74)    0.02 (  61->  72)    0.02 (  57->  75)
 145   8.926     138.9   0.059591   0.053064  -42.812706  -38.179916     0.05 (  64->  79)    0.04 (  58->  76)    0.04 (  62->  81)
 146   8.955     138.5   0.021835   0.019585  -0.946537  -3.410663     0.06 (  61->  74)    0.04 (  62->  81)    0.03 (  70-> 102)
 147   8.975     138.2   0.019195   0.018223  -15.779959  -14.995081     0.05 (  47->  72)    0.05 (  54->  76)    0.03 (  59->  74)
 148   8.991     137.9   0.013730   0.013279  23.970595  24.101814     0.08 (  71-> 102)    0.03 (  70-> 100)    0.03 (  68->  85)
 149   8.998     137.8   0.013686   0.011109  30.934858  27.423941     0.09 (  61->  74)    0.03 (  61->  72)    0.03 (  49->  73)
 150   9.017     137.5   0.012791   0.012794   3.908522   4.193053     0.10 (  65->  92)    0.09 (  54->  76)    0.05 (  63->  74)
 151   9.021     137.4   0.005290   0.004804  -0.774855  -0.459103     0.14 (  54->  76)    0.05 (  71-> 103)    0.05 (  54->  77)
 152   9.027     137.4   0.004345   0.004868   0.057779  -0.620263     0.05 (  54->  76)    0.05 (  53->  72)    0.04 (  49->  73)
 153   9.053     136.9   0.030179   0.028433  -18.278771  -17.877847     0.03 (  65->  86)    0.03 (  71->  98)    0.03 (  70->  85)
 154   9.067     136.7   0.000505   0.000575  -4.727638  -4.772702     0.04 (  69-> 100)    0.04 (  46->  72)    0.04 (  69-> 104)
 155   9.069     136.7   0.011860   0.009488  -9.840456  -8.000660     0.24 (  61->  77)    0.08 (  68->  77)    0.04 (  62->  77)
 156   9.082     136.5   0.007074   0.007251  -1.543851  -0.996100     0.06 (  65->  78)    0.06 (  63->  79)    0.05 (  63->  80)
 157   9.110     136.1   0.002247   0.001463  -0.402979  -0.577769     0.04 (  64->  87)    0.04 (  47->  72)    0.04 (  64->  78)
 158   9.111     136.1   0.005711   0.004941   5.296486   5.238683     0.04 (  70-> 102)    0.03 (  70->  97)    0.03 (  69->  99)
 159   9.125     135.9   0.025144   0.021695  48.800322  44.624622     0.03 (  56->  75)    0.02 (  65->  85)    0.02 (  64->  79)
 160   9.138     135.7   0.000929   0.000942  -6.153524  -3.602895     0.04 (  67->  75)    0.04 (  67->  95)    0.03 (  67->  93)
 161   9.147     135.6   0.009894   0.009068  -2.714530  -2.681540     0.05 (  68->  79)    0.03 (  67->  75)    0.03 (  64->  87)
 162   9.167     135.2   0.007785   0.006504  10.277119   9.064106     0.04 (  47->  72)    0.03 (  45->  73)    0.03 (  48->  73)
 163   9.182     135.0   0.002208   0.001862  -5.382771  -5.561056     0.02 (  67->  75)    0.02 (  56->  75)    0.02 (  67->  80)
 164   9.184     135.0   0.011107   0.009736  -8.748479  -7.941362     0.03 (  61->  83)    0.02 (  66->  83)    0.02 (  68->  84)
 165   9.198     134.8   0.013041   0.010470  -13.024559  -12.136384     0.10 (  66->  76)    0.06 (  63->  76)    0.05 (  68->  76)
 166   9.214     134.6   0.025519   0.023621  -8.069138  -6.484366     0.03 (  68->  79)    0.03 (  64->  91)    0.03 (  48->  73)
 167   9.217     134.5   0.008980   0.007990  -0.346727  -1.696961     0.06 (  58->  77)    0.04 (  68->  81)    0.03 (  70->  81)
 168   9.241     134.2   0.035580   0.030434  24.224239  22.701847     0.11 (  48->  73)    0.03 (  49->  73)    0.02 (  64->  78)
 169   9.242     134.2   0.013283   0.012477   5.068155   4.083147     0.05 (  45->  72)    0.04 (  45->  73)    0.03 (  63->  76)
 170   9.253     134.0   0.001561   0.002452  18.656811  22.900265     0.07 (  62->  73)    0.07 (  71-> 106)    0.04 (  60->  73)
 171   9.258     133.9   0.009955   0.008350  24.519975  22.897539     0.16 (  62->  73)    0.10 (  60->  73)    0.04 (  71->  82)
 172   9.264     133.8   0.034028   0.029064   5.384037   4.604485     0.03 (  49->  73)    0.03 (  55->  75)    0.03 (  60->  73)
 173   9.283     133.6   0.009956   0.009298  -21.547636  -20.747492     0.05 (  56->  78)    0.03 (  71->  98)    0.03 (  71-> 103)
 174   9.291     133.4   0.031766   0.027425  -58.841048  -54.320301     0.03 (  66->  85)    0.03 (  71-> 103)    0.02 (  65->  91)
 175   9.301     133.3   0.001945   0.001816   2.583389   0.756174     0.04 (  55->  75)    0.03 (  49->  73)    0.03 (  56->  78)
 176   9.312     133.1   0.076488   0.069685  -28.926205  -26.467897     0.12 (  49->  73)    0.06 (  48->  73)    0.03 (  48->  72)
 177   9.324     133.0   0.036742   0.029493  -38.713022  -34.461812     0.06 (  55->  75)    0.02 (  59->  81)    0.02 (  50->  74)
 178   9.340     132.7   0.004282   0.003975  30.118444  28.752686     0.07 (  70-> 100)    0.04 (  70-> 104)    0.03 (  70->  99)
 179   9.357     132.5   0.011970   0.009919  -21.782952  -19.259022     0.04 (  69-> 102)    0.04 (  71-> 102)    0.03 (  57->  72)
 180   9.361     132.4   0.006138   0.005337   7.862960   7.293927     0.06 (  53->  76)    0.06 (  48->  76)    0.04 (  61->  83)
 181   9.370     132.3   0.012395   0.011671  31.514582  31.148809     0.04 (  69-> 104)    0.03 (  43->  72)    0.03 (  47->  73)
 182   9.375     132.3   0.015001   0.014263  -14.665704  -11.267812     0.04 (  47->  73)    0.04 (  68->  89)    0.02 (  69->  91)
 183   9.379     132.2   0.017723   0.015932  21.821886  21.380717     0.07 (  48->  76)    0.05 (  54->  77)    0.04 (  47->  73)
 184   9.394     132.0   0.012837   0.010860  -4.891304  -6.356882     0.12 (  67->  80)    0.09 (  67->  78)    0.03 (  67->  93)
 185   9.401     131.9   0.015014   0.012869  -40.962611  -37.839129     0.05 (  67->  80)    0.03 (  67->  78)    0.03 (  63->  76)
 186   9.408     131.8   0.005387   0.004861  -8.146331  -6.604093     0.03 (  53->  76)    0.02 (  67->  78)    0.02 (  63->  76)
 187   9.415     131.7   0.014894   0.013394  -22.613651  -22.284673     0.04 (  47->  73)    0.03 (  64->  79)    0.03 (  63->  76)
 188   9.425     131.6   0.001163   0.001029   3.963804   3.836154     0.08 (  63->  76)    0.08 (  53->  76)    0.04 (  66->  76)
 189   9.450     131.2   0.003470   0.003148  -5.211080  -4.877375     0.04 (  69-> 100)    0.03 (  68->  97)    0.03 (  71-> 106)
 190   9.458     131.1   0.004933   0.004693  30.658543  29.232189     0.03 (  69-> 100)    0.03 (  70->  84)    0.03 (  70->  83)
 191   9.466     131.0   0.004739   0.004755   5.868285   4.859398     0.04 (  55->  74)    0.03 (  62->  81)    0.03 (  67->  80)
 192   9.485     130.7   0.009336   0.008271  -34.185029  -31.698747     0.05 (  64->  78)    0.04 (  70->  83)    0.04 (  64->  81)
 193   9.498     130.5   0.009610   0.008750  20.887777  21.481463     0.09 (  61->  83)    0.07 (  63->  76)    0.04 (  61->  84)
 194   9.517     130.3   0.017368   0.013763  -26.436561  -23.725674     0.04 (  64->  91)    0.03 (  71-> 104)    0.02 (  51->  74)
 195   9.531     130.1   0.014746   0.014181  -1.230254  -0.968397     0.06 (  71-> 105)    0.03 (  68->  81)    0.02 (  70-> 105)
 196   9.545     129.9   0.018069   0.016540  22.812599  22.463291     0.04 (  71-> 104)    0.04 (  69-> 104)    0.02 (  57->  72)
 197   9.557     129.7   0.045768   0.043574  -8.479815  -10.384171     0.10 (  63->  76)    0.06 (  48->  77)    0.05 (  54->  77)
 198   9.571     129.5   0.007164   0.006760  -2.356687  -1.015898     0.05 (  69->  83)    0.04 (  46->  73)    0.04 (  70->  92)
 199   9.593     129.2   0.005885   0.005283  -11.823465  -11.533347     0.09 (  58->  72)    0.04 (  57->  72)    0.04 (  58->  74)
 200   9.601     129.1   0.024864   0.020407  -49.358643  -43.720999     0.05 (  64->  78)    0.05 (  64->  91)    0.04 (  64->  79)
 201   9.614     129.0   0.007047   0.006385   9.082468   9.374320     0.20 (  64->  76)    0.04 (  66->  76)    0.03 (  65->  76)
 202   9.628     128.8   0.000110   0.000163   0.309111  -0.002551     0.19 (  67->  78)    0.06 (  67->  79)    0.06 (  66->  77)
 203   9.639     128.6   0.013600   0.011668  16.159081  14.453776     0.11 (  69->  83)    0.10 (  67->  78)    0.05 (  69->  84)
 204   9.642     128.6   0.003773   0.002532  -10.480778  -7.569318     0.08 (  66->  77)    0.07 (  67->  78)    0.05 (  63->  77)
 205   9.649     128.5   0.018285   0.015696  24.277418  21.810085     0.11 (  64->  76)    0.03 (  66->  76)    0.03 (  66->  77)
 206   9.667     128.3   0.039385   0.033001  20.809592  19.819081     0.05 (  63->  75)    0.03 (  63->  92)    0.03 (  65->  75)
 207   9.671     128.2   0.020291   0.017623  14.192762  13.024539     0.05 (  71-> 105)    0.04 (  70-> 105)    0.03 (  71->  86)
 208   9.702     127.8   0.030252   0.025701  -13.328617  -11.478068     0.04 (  71-> 105)    0.03 (  56->  72)    0.03 (  70-> 105)
 209   9.713     127.6   0.057107   0.046872  -45.867600  -40.329008     0.07 (  63->  77)    0.03 (  71->  86)    0.02 (  56->  72)
 210   9.729     127.4   0.015098   0.012067  13.008205  11.785715     0.04 (  57->  72)    0.03 (  52->  72)    0.03 (  43->  72)
 211   9.733     127.4   0.010518   0.007687   3.622643   2.817805     0.07 (  71->  86)    0.05 (  63->  77)    0.05 (  71->  87)
 212   9.738     127.3   0.011790   0.009541  -20.155955  -17.857523     0.08 (  63->  77)    0.04 (  66->  90)    0.03 (  71->  87)
 213   9.744     127.2   0.062527   0.053609  21.978517  19.557580     0.04 (  64->  83)    0.02 (  64->  76)    0.02 (  66->  90)
 214   9.748     127.2   0.027867   0.024317  43.007218  43.987729     0.14 (  63->  77)    0.04 (  71->  87)    0.02 (  65->  77)
 215   9.765     127.0   0.185356   0.157871  -14.054959  -9.375000     0.02 (  69-> 103)    0.02 (  64->  92)    0.02 (  64->  76)
 216   9.777     126.8   0.077887   0.062534  -16.477529  -14.879898     0.04 (  61->  83)    0.04 (  47->  73)    0.04 (  62->  80)
 217   9.784     126.7   0.046696   0.044638  -95.758405  -93.790762     0.04 (  62->  81)    0.04 (  62->  78)    0.02 (  71->  85)
 218   9.806     126.4   0.012263   0.011520  20.229072  20.534049     0.03 (  51->  75)    0.03 (  60->  75)    0.02 (  56->  72)
 219   9.823     126.2   0.012068   0.010591  11.572450  12.415648     0.08 (  71->  88)    0.04 (  71-> 108)    0.03 (  71->  86)
 220   9.829     126.1   0.013196   0.011297   5.877129   4.881016     0.08 (  71->  88)    0.03 (  68->  98)    0.03 (  70-> 105)
 221   9.842     126.0   0.061769   0.049509  35.729413  31.417017     0.07 (  71->  88)    0.03 (  70->  89)    0.03 (  71-> 111)
 222   9.851     125.9   0.063526   0.055733  -14.998688  -13.431222     0.04 (  65->  90)    0.04 (  65->  81)    0.04 (  63->  90)
 223   9.864     125.7   0.010575   0.007878  -11.876187  -10.710330     0.06 (  63->  77)    0.05 (  48->  76)    0.05 (  48->  77)
 224   9.876     125.5   0.013990   0.012600  -19.016250  -16.953565     0.11 (  65->  81)    0.06 (  63->  81)    0.06 (  65->  80)
 225   9.879     125.5   0.079242   0.071891  120.143453  111.288333     0.09 (  48->  76)    0.08 (  48->  77)    0.04 (  49->  77)
 226   9.884     125.4   0.011039   0.011326  -45.942284  -44.549520     0.04 (  71-> 110)    0.04 (  63->  77)    0.03 (  61-> 101)
 227   9.912     125.1   0.004630   0.003198  -19.137456  -19.354986     0.02 (  37->  72)    0.02 (  43->  72)    0.02 (  54->  72)
 228   9.930     124.9   0.040569   0.035464  -19.188854  -18.287894     0.07 (  54->  72)    0.03 (  71->  85)    0.03 (  53->  79)
 229   9.933     124.8   0.005695   0.005097  -39.477122  -35.673348     0.03 (  55->  78)    0.03 (  67-> 101)    0.03 (  69-> 105)
 230   9.951     124.6   0.000361   0.000206  -3.083201  -3.278428     0.06 (  69-> 105)    0.03 (  45->  73)    0.03 (  54->  72)
 231   9.968     124.4   0.053368   0.048788  11.022374  10.460228     0.04 (  67-> 101)    0.03 (  45->  73)    0.03 (  67-> 100)
 232   9.974     124.3   0.091164   0.074874  -12.072493  -12.915824     0.06 (  64->  77)    0.03 (  71-> 105)    0.03 (  64->  84)
 233   9.983     124.2   0.008327   0.006320  21.410919  18.041965     0.08 (  63->  78)    0.06 (  65->  84)    0.05 (  65->  78)
 234   9.989     124.1   0.028034   0.025676  -11.264278  -13.503823     0.04 (  64->  77)    0.04 (  69-> 105)    0.03 (  70-> 105)
 235   9.997     124.0   0.076979   0.068051  43.153703  40.552079     0.07 (  64->  77)    0.06 (  49->  77)    0.04 (  69-> 105)

sTD-DFT done

Total run time:       27.006 sec

           *** ORCA-CIS/TD-DFT FINISHED WITHOUT ERROR ***


-------------------------------------------------------------------------------
                          DFT DISPERSION CORRECTION                            
                                                                               
                              DFTD3 V3.1  Rev 1                                
                              USING zero damping                               
-------------------------------------------------------------------------------
The omegaB97X-D3 functional is recognized. Fit by Chai et al.
Active option DFTDOPT                   ...         3   

molecular C6(AA) [au] = 36054.265405 


            DFT-D V3
 parameters
 s6 scaling factor         :     1.0000 
 rs6 scaling factor        :     1.2810 
 s8 scaling factor         :     1.0000 
 rs8 scaling factor        :     1.0940 
 Damping factor alpha6     :    14.0000 
 Damping factor alpha8     :    16.0000 
 ad hoc parameters k1-k3   :    16.0000     1.3333    -4.0000 

 Edisp/kcal,au: -13.579218086765  -0.021639859157 
 E6   /kcal   :  -6.339696914 
 E8   /kcal   :  -7.239521173 
 % E8         :  53.313240325 

-------------------------   ----------------
Dispersion correction           -0.021639859
-------------------------   ----------------


-------------------------   --------------------
FINAL SINGLE POINT ENERGY     -2110.025251045067
-------------------------   --------------------


                            ***************************************
                            *     ORCA property calculations      *
                            ***************************************

                                    ---------------------
                                    Active property flags
                                    ---------------------
   (+) Dipole Moment
   (+) Quadrupole Moment


------------------------------------------------------------------------------
                       ORCA ELECTRIC PROPERTIES CALCULATION
------------------------------------------------------------------------------

Dipole Moment Calculation                       ... on
Quadrupole Moment Calculation                   ... on
Polarizability Calculation                      ... off
GBWName                                         ... total_job2.gbw
Electron density file                           ... total_job2.scfp.tmp

-------------
DIPOLE MOMENT
-------------
                                X             Y             Z
Electronic contribution:     11.71596       0.26211      -9.05333
Nuclear contribution   :    -12.65407      -0.24983       9.55499
                        -----------------------------------------
Total Dipole Moment    :     -0.93811       0.01229       0.50166
                        -----------------------------------------
Magnitude (a.u.)       :      1.06389
Magnitude (Debye)      :      2.70419


------------------------
QUADRUPOLE MOMENT (A.U.)
------------------------

                XX           YY           ZZ           XY           XZ           YZ
  NUC     20212.49386    741.65751   3066.47371  -1905.65746   -354.65404   -579.58444
  EL     -20328.10163   -890.24594  -3193.28704   1898.54867    358.67450    576.51361
  TOT      -115.60777   -148.58842   -126.81333     -7.10878      4.02046     -3.07083

--------------------------------------------------------------------------
[[18101,1],5]: A high-performance Open MPI point-to-point messaging module
was unable to find any relevant network interfaces:

Module: OpenFabrics (openib)
  Host: cx1-136-6-4

Another transport will be used instead, although this may result in
lower performance.
--------------------------------------------------------------------------

Timings for individual modules:

Sum of individual times         ...      170.314 sec (=   2.839 min)
GTO integral calculation        ...        5.815 sec (=   0.097 min)   3.4 %
SCF iterations                  ...      134.482 sec (=   2.241 min)  79.0 %
CIS module                      ...       30.017 sec (=   0.500 min)  17.6 %



                             ****ORCA TERMINATED NORMALLY****
TOTAL RUN TIME: 0 days 0 hours 11 minutes 3 seconds 674 msec
