
                                 *****************
                                 * O   R   C   A *
                                 *****************

           --- An Ab Initio, DFT and Semiempirical electronic structure package ---

                  #######################################################
                  #                        -***-                        #
                  #  Department of molecular theory and spectroscopy    #
                  #              Directorship: Frank Neese              #
                  # Max Planck Institute for Chemical Energy Conversion #
                  #                  D-45470 Muelheim/Ruhr              #
                  #                       Germany                       #
                  #                                                     #
                  #                  All rights reserved                #
                  #                        -***-                        #
                  #######################################################


                         Program Version 4.0.0 -  RELEASE  -


 With contributions from (in alphabetic order):
   Daniel Aravena         : Magnetic Properties
   Michael Atanasov       : Ab Initio Ligand Field Theory
   Ute Becker             : Parallelization
   Martin Brehm           : Molecular dynamics
   Dmytro Bykov           : SCF Hessian
   Vijay G. Chilkuri      : MRCI spin determinant printing
   Dipayan Datta          : RHF DLPNO-CCSD density
   Achintya Kumar Dutta   : EOM-CC, STEOM-CC
   Dmitry Ganyushin       : Spin-Orbit,Spin-Spin,Magnetic field MRCI
   Yang Guo               : DLPNO-NEVPT2, CIM, IAO-localization
   Andreas Hansen         : Spin unrestricted coupled pair/coupled cluster methods
   Lee Huntington         : MR-EOM, pCC
   Robert Izsak           : Overlap fitted RIJCOSX, COSX-SCS-MP3, EOM
   Christian Kollmar      : KDIIS, OOCD, Brueckner-CCSD(T), CCSD density
   Simone Kossmann        : Meta GGA functionals, TD-DFT gradient, OOMP2, MP2 Hessian
   Martin Krupicka        : AUTO-CI
   Dagmar Lenk            : GEPOL surface
   Dimitrios Liakos       : Extrapolation schemes; parallel MDCI
   Dimitrios Manganas     : ROCIS; embedding schemes
   Dimitrios Pantazis     : SARC Basis sets
   Taras Petrenko         : DFT Hessian,TD-DFT gradient, ASA, ECA, R-Raman, ABS, FL, XAS/XES, NRVS
   Peter Pinski           : DLPNO-MP2
   Christoph Reimann      : Effective Core Potentials
   Marius Retegan         : Local ZFS, SOC
   Christoph Riplinger    : Optimizer, TS searches, QM/MM, DLPNO-CCSD(T), (RO)-DLPNO pert. Triples
   Tobias Risthaus        : Range-separated hybrids, TD-DFT gradient, RPA, STAB
   Michael Roemelt        : Restricted open shell CIS
   Masaaki Saitow         : Open-shell DLPNO
   Barbara Sandhoefer     : DKH picture change effects
   Kantharuban Sivalingam : CASSCF convergence, NEVPT2, FIC-MRCI
   Georgi Stoychev        : AutoAux
   Boris Wezisla          : Elementary symmetry handling
   Frank Wennmohs         : Technical directorship


 We gratefully acknowledge several colleagues who have allowed us to
 interface, adapt or use parts of their codes:
   Stefan Grimme, W. Hujo, H. Kruse,             : VdW corrections, initial TS optimization,
                  C. Bannwarth                     DFT functionals, gCP, sTDA/sTD-DF
   Ed Valeev                                     : LibInt (2-el integral package), F12 methods
   Garnet Chan, S. Sharma, J. Yang, R. Olivares  : DMRG
   Ulf Ekstrom                                   : XCFun DFT Library
   Mihaly Kallay                                 : mrcc  (arbitrary order and MRCC methods)
   Jiri Pittner, Ondrej Demel                    : Mk-CCSD
   Frank Weinhold                                : gennbo (NPA and NBO analysis)
   Christopher J. Cramer and Donald G. Truhlar   : smd solvation model


 Your calculation uses the libint2 library for the computation of 2-el integrals
 For citations please refer to: http://libint.valeyev.net

 This ORCA versions uses:
   CBLAS   interface :  Fast vector & matrix operations
   LAPACKE interface :  Fast linear algebra routines
   SCALAPACK package :  Parallel linear algebra routines


Your calculation utilizes the atom-pairwise dispersion correction
with the zero-damping scheme (D30)
Cite in your paper:
S.Grimme, J.Antony, S.Ehrlich and H.Krieg, J.Chem.Phys., 132, (2010), 154104 
   

XCFun DFT library Copyright 2009-2010 Ulf Ekstrom and contributors.
See http://admol.org/xcfun for more information. This is free soft-
ware; see the source code for copying conditions. There is ABSOLUTELY
NO WARRANTY; not even for MERCHANTABILITY or FITNESS FOR A PARTICULAR
PURPOSE. For details see the documentation. Scientific users of this 
library should cite U. Ekstrom, L. Visscher, R. Bast, A. J. Thorvald-
sen and K. Ruud; J.Chem.Theor.Comp. 2010, DOI: 10.1021/ct100117s
XCFun Version 0.99 
Your calculation utilizes the basis: def2-TZVP
   F. Weigend and R. Ahlrichs, Phys. Chem. Chem. Phys. 7, 3297 (2005).

Your calculation utilizes the auxiliary basis: def2/J
   F. Weigend, Phys. Chem. Chem. Phys. 8, 1057 (2006).

================================================================================
                                        WARNINGS
                       Please study these warnings very carefully!
================================================================================

Warning: TCutStore was < 0. Adjusted to Thresh (uncritical)
INFO   : Checking CIS options ...

WARNING: CIS/ROCIS methods need fully converged wavefunctions
  ===> : Setting SCFConvForced true
         You can overwrite this default with %scf ConvForced false 


INFO   : the flag for use of LIBINT has been found!

Your calculation utilizes the atom-pairwise dispersion correction
with the zero-damping scheme (D30)
Cite in your paper:
S.Grimme, J.Antony, S.Ehrlich and H.Krieg, J.Chem.Phys., 132, (2010), 154104 
   

XCFun DFT library Copyright 2009-2010 Ulf Ekstrom and contributors.
See http://admol.org/xcfun for more information. This is free soft-
ware; see the source code for copying conditions. There is ABSOLUTELY
NO WARRANTY; not even for MERCHANTABILITY or FITNESS FOR A PARTICULAR
PURPOSE. For details see the documentation. Scientific users of this 
library should cite U. Ekstrom, L. Visscher, R. Bast, A. J. Thorvald-
sen and K. Ruud; J.Chem.Theor.Comp. 2010, DOI: 10.1021/ct100117s
XCFun Version 0.99 
Your calculation utilizes the basis: def2-TZVP
   F. Weigend and R. Ahlrichs, Phys. Chem. Chem. Phys. 7, 3297 (2005).

Your calculation utilizes the auxiliary basis: def2/J
   F. Weigend, Phys. Chem. Chem. Phys. 8, 1057 (2006).

================================================================================
                                        WARNINGS
                       Please study these warnings very carefully!
================================================================================

INFO   : Checking CIS options ...

INFO   : the flag for use of LIBINT has been found!

================================================================================
                                       INPUT FILE
================================================================================
NAME = total.inp
|  1> # 
|  2> !wB97X-D3 def2-TZVP def2/J RIJCOSX Grid5 FinalGrid6 TightSCF
|  3> %pal 
|  4>  nprocs 24
|  5> end
|  6> %tddft
|  7>   Mode sTDDFT
|  8>   nroots 2
|  9>   Ethresh 10.0
| 10>   maxcore 5000
| 11>   triplets true
| 12> end
| 13> * xyz 0 1 
| 14> C 5.00681833 -2.15092036 -1.68218372
| 15> C 4.33444629 -1.28655045 -0.82083735
| 16> C 5.06720429 -0.31553943 -0.11428416
| 17> C 6.48163321 -0.28551877 -0.27251355
| 18> C 7.16119109 -1.15127908 -1.14287826
| 19> C 6.40057861 -2.07894883 -1.85113489
| 20> C 4.73858754 0.70627132 0.86688050
| 21> C 5.97984897 1.27000382 1.28037740
| 22> N 7.00852280 0.68083143 0.56656927
| 23> C 6.07669990 2.24977540 2.28040568
| 24> C 4.89135571 2.66051400 2.88688010
| 25> C 3.65382273 2.13894607 2.48440616
| 26> C 3.53971884 1.17944979 1.46081029
| 27> H 2.74786571 2.51061587 2.95591089
| 28> H 7.99307627 0.88922777 0.67851184
| 29> H 4.92114438 3.40948347 3.67351854
| 30> H 3.26019721 -1.38289583 -0.69342592
| 31> H 8.24156376 -1.10609530 -1.25161986
| 32> H 6.89257840 -2.76725502 -2.53318143
| 33> H 4.44499024 -2.90154174 -2.23138878
| 34> N -2.36345840 -0.25421401 -0.45859697
| 35> C -1.10419434 0.05455561 -0.96146749
| 36> C -1.02585231 0.10784156 -2.34326044
| 37> S -2.57752793 -0.24123087 -3.05368314
| 38> C -3.25599792 -0.42428712 -1.40883643
| 39> C 0.00136709 0.29408115 -0.04424900
| 40> S 1.64414626 0.67549715 -0.61969708
| 41> C 2.18769467 0.76259446 1.05590462
| 42> C 1.10854582 0.52952697 1.88795806
| 43> N -0.09239587 0.25506938 1.27506268
| 44> H -0.14965659 0.33565644 -2.93745565
| 45> H 1.17081581 0.52107954 2.97457988
| 46> C -4.65630597 -0.84560742 -1.20518260
| 47> C -5.50699684 -0.28397741 -0.18984785
| 48> C -6.77851184 -0.89860597 0.05657432
| 49> C -7.20021023 -1.99032406 -0.75127385
| 50> C -6.40613065 -2.45323057 -1.77750505
| 51> C -5.13498362 -1.88628635 -1.99618600
| 52> C -7.62085247 -0.40693407 1.09438040
| 53> C -7.24181515 0.68029694 1.85256518
| 54> C -6.02872145 1.34745240 1.58211824
| 55> C -5.18768490 0.88988133 0.57130775
| 56> O -4.07788127 1.60231033 0.26895772
| 57> H -5.75496233 2.23428649 2.14829737
| 58> H -6.73997817 -3.27568384 -2.40460058
| 59> H -4.49367385 -2.30143626 -2.77088012
| 60> H -7.88649324 1.04879118 2.64549994
| 61> H -8.57226112 -0.89954252 1.27467021
| 62> H -3.96647708 2.33747663 0.88546295
| 63> H 7.03737807 2.66135580 2.57648455
| 64> H -8.16836841 -2.44506698 -0.55532436
| 65> *
| 66> $new_job
| 67> # 
| 68> !wB97X-D3 def2-TZVP def2/J RIJCOSX Grid5 FinalGrid6 TightSCF
| 69> %pal 
| 70>  nprocs 24
| 71> end
| 72> %elprop
| 73>    dipole     true
| 74>    quadrupole true
| 75> end
| 76> %tddft
| 77>   Mode sTDDFT
| 78>   nroots 2
| 79>   Ethresh 10.0
| 80>   maxcore 5000
| 81> end
| 82> * xyz 0 1 
| 83> C 5.00681833 -2.15092036 -1.68218372
| 84> C 4.33444629 -1.28655045 -0.82083735
| 85> C 5.06720429 -0.31553943 -0.11428416
| 86> C 6.48163321 -0.28551877 -0.27251355
| 87> C 7.16119109 -1.15127908 -1.14287826
| 88> C 6.40057861 -2.07894883 -1.85113489
| 89> C 4.73858754 0.70627132 0.86688050
| 90> C 5.97984897 1.27000382 1.28037740
| 91> N 7.00852280 0.68083143 0.56656927
| 92> C 6.07669990 2.24977540 2.28040568
| 93> C 4.89135571 2.66051400 2.88688010
| 94> C 3.65382273 2.13894607 2.48440616
| 95> C 3.53971884 1.17944979 1.46081029
| 96> H 2.74786571 2.51061587 2.95591089
| 97> H 7.99307627 0.88922777 0.67851184
| 98> H 4.92114438 3.40948347 3.67351854
| 99> H 3.26019721 -1.38289583 -0.69342592
|100> H 8.24156376 -1.10609530 -1.25161986
|101> H 6.89257840 -2.76725502 -2.53318143
|102> H 4.44499024 -2.90154174 -2.23138878
|103> N -2.36345840 -0.25421401 -0.45859697
|104> C -1.10419434 0.05455561 -0.96146749
|105> C -1.02585231 0.10784156 -2.34326044
|106> S -2.57752793 -0.24123087 -3.05368314
|107> C -3.25599792 -0.42428712 -1.40883643
|108> C 0.00136709 0.29408115 -0.04424900
|109> S 1.64414626 0.67549715 -0.61969708
|110> C 2.18769467 0.76259446 1.05590462
|111> C 1.10854582 0.52952697 1.88795806
|112> N -0.09239587 0.25506938 1.27506268
|113> H -0.14965659 0.33565644 -2.93745565
|114> H 1.17081581 0.52107954 2.97457988
|115> C -4.65630597 -0.84560742 -1.20518260
|116> C -5.50699684 -0.28397741 -0.18984785
|117> C -6.77851184 -0.89860597 0.05657432
|118> C -7.20021023 -1.99032406 -0.75127385
|119> C -6.40613065 -2.45323057 -1.77750505
|120> C -5.13498362 -1.88628635 -1.99618600
|121> C -7.62085247 -0.40693407 1.09438040
|122> C -7.24181515 0.68029694 1.85256518
|123> C -6.02872145 1.34745240 1.58211824
|124> C -5.18768490 0.88988133 0.57130775
|125> O -4.07788127 1.60231033 0.26895772
|126> H -5.75496233 2.23428649 2.14829737
|127> H -6.73997817 -3.27568384 -2.40460058
|128> H -4.49367385 -2.30143626 -2.77088012
|129> H -7.88649324 1.04879118 2.64549994
|130> H -8.57226112 -0.89954252 1.27467021
|131> H -3.96647708 2.33747663 0.88546295
|132> H 7.03737807 2.66135580 2.57648455
|133> H -8.16836841 -2.44506698 -0.55532436
|134> *
|135> 
|136>                          ****END OF INPUT****
================================================================================


                 $$$$$$$$$$$$$$$$$$$$$$$$$$$$$$$$$$$$$$$$$$$$$$ 
                 $ THERE ARE  2 JOBS TO BE PROCESSED THIS RUN $
                 $$$$$$$$$$$$$$$$$$$$$$$$$$$$$$$$$$$$$$$$$$$$$$ 




                 $$$$$$$$$$$$$$$$  JOB NUMBER  1 $$$$$$$$$$$$$$


                       ****************************
                       * Single Point Calculation *
                       ****************************

---------------------------------
CARTESIAN COORDINATES (ANGSTROEM)
---------------------------------
  C      5.006818   -2.150920   -1.682184
  C      4.334446   -1.286550   -0.820837
  C      5.067204   -0.315539   -0.114284
  C      6.481633   -0.285519   -0.272514
  C      7.161191   -1.151279   -1.142878
  C      6.400579   -2.078949   -1.851135
  C      4.738588    0.706271    0.866881
  C      5.979849    1.270004    1.280377
  N      7.008523    0.680831    0.566569
  C      6.076700    2.249775    2.280406
  C      4.891356    2.660514    2.886880
  C      3.653823    2.138946    2.484406
  C      3.539719    1.179450    1.460810
  H      2.747866    2.510616    2.955911
  H      7.993076    0.889228    0.678512
  H      4.921144    3.409483    3.673519
  H      3.260197   -1.382896   -0.693426
  H      8.241564   -1.106095   -1.251620
  H      6.892578   -2.767255   -2.533181
  H      4.444990   -2.901542   -2.231389
  N     -2.363458   -0.254214   -0.458597
  C     -1.104194    0.054556   -0.961467
  C     -1.025852    0.107842   -2.343260
  S     -2.577528   -0.241231   -3.053683
  C     -3.255998   -0.424287   -1.408836
  C      0.001367    0.294081   -0.044249
  S      1.644146    0.675497   -0.619697
  C      2.187695    0.762594    1.055905
  C      1.108546    0.529527    1.887958
  N     -0.092396    0.255069    1.275063
  H     -0.149657    0.335656   -2.937456
  H      1.170816    0.521080    2.974580
  C     -4.656306   -0.845607   -1.205183
  C     -5.506997   -0.283977   -0.189848
  C     -6.778512   -0.898606    0.056574
  C     -7.200210   -1.990324   -0.751274
  C     -6.406131   -2.453231   -1.777505
  C     -5.134984   -1.886286   -1.996186
  C     -7.620852   -0.406934    1.094380
  C     -7.241815    0.680297    1.852565
  C     -6.028721    1.347452    1.582118
  C     -5.187685    0.889881    0.571308
  O     -4.077881    1.602310    0.268958
  H     -5.754962    2.234286    2.148297
  H     -6.739978   -3.275684   -2.404601
  H     -4.493674   -2.301436   -2.770880
  H     -7.886493    1.048791    2.645500
  H     -8.572261   -0.899543    1.274670
  H     -3.966477    2.337477    0.885463
  H      7.037378    2.661356    2.576485
  H     -8.168368   -2.445067   -0.555324

----------------------------
CARTESIAN COORDINATES (A.U.)
----------------------------
  NO LB      ZA    FRAG     MASS         X           Y           Z
   0 C     6.0000    0    12.011    9.461515   -4.064650   -3.178867
   1 C     6.0000    0    12.011    8.190916   -2.431228   -1.551158
   2 C     6.0000    0    12.011    9.575628   -0.596283   -0.215966
   3 C     6.0000    0    12.011   12.248512   -0.539552   -0.514976
   4 C     6.0000    0    12.011   13.532690   -2.175602   -2.159727
   5 C     6.0000    0    12.011   12.095341   -3.928644   -3.498138
   6 C     6.0000    0    12.011    8.954633    1.334659    1.638167
   7 C     6.0000    0    12.011   11.300277    2.399959    2.419563
   8 N     7.0000    0    14.007   13.244189    1.286585    1.070661
   9 C     6.0000    0    12.011   11.483299    4.251459    4.309342
  10 C     6.0000    0    12.011    9.243323    5.027643    5.455413
  11 C     6.0000    0    12.011    6.904724    4.042022    4.694847
  12 C     6.0000    0    12.011    6.689099    2.228837    2.760531
  13 H     1.0000    0     1.008    5.192714    4.744376    5.585862
  14 H     1.0000    0     1.008   15.104725    1.680397    1.282202
  15 H     1.0000    0     1.008    9.299615    6.442990    6.941944
  16 H     1.0000    0     1.008    6.160880   -2.613294   -1.310385
  17 H     1.0000    0     1.008   15.574298   -2.090217   -2.365219
  18 H     1.0000    0     1.008   13.025086   -5.229354   -4.787019
  19 H     1.0000    0     1.008    8.399814   -5.483119   -4.216714
  20 N     7.0000    0    14.007   -4.466289   -0.480395   -0.866623
  21 C     6.0000    0    12.011   -2.086625    0.103095   -1.816910
  22 C     6.0000    0    12.011   -1.938580    0.203791   -4.428120
  23 S    16.0000    0    32.060   -4.870822   -0.455860   -5.770625
  24 C     6.0000    0    12.011   -6.152944   -0.801786   -2.662315
  25 C     6.0000    0    12.011    0.002583    0.555733   -0.083618
  26 S    16.0000    0    32.060    3.106986    1.276505   -1.171058
  27 C     6.0000    0    12.011    4.134144    1.441095    1.995371
  28 C     6.0000    0    12.011    2.094848    1.000661    3.567724
  29 N     7.0000    0    14.007   -0.174603    0.482011    2.409519
  30 H     1.0000    0     1.008   -0.282810    0.634299   -5.550987
  31 H     1.0000    0     1.008    2.212521    0.984698    5.621141
  32 C     6.0000    0    12.011   -8.799143   -1.597966   -2.277465
  33 C     6.0000    0    12.011  -10.406716   -0.536640   -0.358760
  34 C     6.0000    0    12.011  -12.809531   -1.698119    0.106910
  35 C     6.0000    0    12.011  -13.606425   -3.761167   -1.419702
  36 C     6.0000    0    12.011  -12.105833   -4.635934   -3.358998
  37 C     6.0000    0    12.011   -9.703713   -3.564565   -3.772245
  38 C     6.0000    0    12.011  -14.401324   -0.768994    2.068079
  39 C     6.0000    0    12.011  -13.685047    1.285575    3.500841
  40 C     6.0000    0    12.011  -11.392632    2.546316    2.989770
  41 C     6.0000    0    12.011   -9.803304    1.681632    1.079615
  42 O     8.0000    0    15.999   -7.706079    3.027928    0.508256
  43 H     1.0000    0     1.008  -10.875303    4.222190    4.059694
  44 H     1.0000    0     1.008  -12.736713   -6.190145   -4.544037
  45 H     1.0000    0     1.008   -8.491813   -4.349084   -5.236205
  46 H     1.0000    0     1.008  -14.903312    1.981928    4.999270
  47 H     1.0000    0     1.008  -16.199226   -1.699889    2.408778
  48 H     1.0000    0     1.008   -7.495555    4.417191    1.673282
  49 H     1.0000    0     1.008   13.298717    5.029234    4.868850
  50 H     1.0000    0     1.008  -15.435979   -4.620507   -1.049411

--------------------------------
INTERNAL COORDINATES (ANGSTROEM)
--------------------------------
 C      0   0   0     0.000000000000     0.00000000     0.00000000
 C      1   0   0     1.393246952482     0.00000000     0.00000000
 C      2   1   0     1.406774359243   119.16707186     0.00000000
 C      3   2   1     1.423568386000   118.44174327   357.79467144
 C      4   3   2     1.403165904323   122.48828512     2.52497643
 C      5   4   3     1.393100844783   117.50321129   358.99661005
 C      3   2   1     1.454224971326   134.92331779   181.87053070
 C      7   3   2     1.424606596739   106.08056588   174.44943458
 N      8   7   3     1.383768766854   109.23868036     2.32788931
 C      8   7   3     1.403349212569   122.90441968   183.41954412
 C     10   8   7     1.393398101194   117.20986966     0.63465676
 C     11  10   8     1.401965140284   121.08420136   358.31015051
 C     12  11  10     1.407622575170   122.26941313     0.21660303
 H     12  11  10     1.086836359684   118.94947850   182.22958594
 H      9   8   7     1.012573804121   125.32114089   181.11109483
 H     11  10   8     1.086573820381   119.66766575   179.35339472
 H      2   1   3     1.086060399160   119.65898487   180.99522872
 H      5   4   3     1.086771096243   121.18912734   179.63727221
 H      6   5   4     1.086745916615   119.58093750   180.11926482
 H      1   2   3     1.086604553992   119.44038470   180.10046782
 N     17   2   1     5.740607085182   163.00508760   234.69138065
 C     21  17   2     1.390670130163    30.88502030    24.00717516
 C     22  21  17     1.385037408448   114.86719449   125.76970368
 S     23  22  21     1.741909642824   110.41334313   359.92606585
 C     21  17   2     1.314726849520   127.59296400    93.65696565
 C     22  21  17     1.456340728749   119.74764564   305.64944394
 S     26  22  21     1.781948949667   122.11811255   179.27893141
 C     13  12  11     1.471627100869   117.88083574   183.89618701
 C     28  13  12     1.382459989427   126.82091914   319.70921086
 N     26  22  21     1.323214540372   124.70221455   359.29528475
 H     23  22  21     1.082906508838   126.96151091   179.56124434
 H     29  28  13     1.088437361739   123.88379921   352.69655061
 C     25  21  17     1.476430937281   125.52760131   144.37368178
 C     33  25  21     1.438752195130   123.14316221    45.58965266
 C     34  33  25     1.433611714468   118.57841760   189.25543516
 C     35  34  33     1.422074746957   119.63635208   356.40843336
 C     36  35  34     1.377677499354   120.67636031   359.26162587
 C     33  25  21     1.392060094524   117.45731249   229.09182980
 C     35  34  33     1.424191157775   120.12071235   177.17903963
 C     39  35  34     1.378616959014   120.69063426     1.49963474
 C     40  39  35     1.410614858898   120.26443188     1.95107867
 C     41  40  39     1.392282876872   120.21475700   358.21602568
 O     42  41  40     1.353009503974   118.99117875   175.33756383
 H     41  40  39     1.087187916699   120.16530070   176.94884706
 H     37  36  35     1.086799131252   120.46652930   181.15103443
 H     38  33  25     1.088015922877   119.15401206   355.93818068
 H     40  39  35     1.086344042307   120.38269121   180.23805733
 H     39  35  34     1.086437259991   118.83801908   181.08062904
 H     43  42  41     0.965898069582   110.65523780     5.40730675
 H     10   8   7     1.086261326403   121.31881084   179.93084116
 H     36  35  34     1.087436245222   118.86060446   180.18991963

---------------------------
INTERNAL COORDINATES (A.U.)
---------------------------
 C      0   0   0     0.000000000000     0.00000000     0.00000000
 C      1   0   0     2.632855177111     0.00000000     0.00000000
 C      2   1   0     2.658418271193   119.16707186     0.00000000
 C      3   2   1     2.690154382449   118.44174327   357.79467144
 C      4   3   2     2.651599279627   122.48828512     2.52497643
 C      5   4   3     2.632579073575   117.50321129   358.99661005
 C      3   2   1     2.748086932916   134.92331779   181.87053070
 C      7   3   2     2.692116316414   106.08056588   174.44943458
 N      8   7   3     2.614944002027   109.23868036     2.32788931
 C      8   7   3     2.651945682009   122.90441968   183.41954412
 C     10   8   7     2.633140806783   117.20986966     0.63465676
 C     11  10   8     2.649330164441   121.08420136   358.31015051
 C     12  11  10     2.660021166996   122.26941313     0.21660303
 H     12  11  10     2.053823072191   118.94947850   182.22958594
 H      9   8   7     1.913487180172   125.32114089   181.11109483
 H     11  10   8     2.053326944809   119.66766575   179.35339472
 H      2   1   3     2.052356719309   119.65898487   180.99522872
 H      5   4   3     2.053699742160   121.18912734   179.63727221
 H      6   5   4     2.053652159559   119.58093750   180.11926482
 H      1   2   3     2.053385022916   119.44038470   180.10046782
 N     17   2   1    10.848175233442   163.00508760   234.69138065
 C     21  17   2     2.627985688633    30.88502030    24.00717516
 C     22  21  17     2.617341387204   114.86719449   125.76970368
 S     23  22  21     3.291732174974   110.41334313   359.92606585
 C     21  17   2     2.484473686505   127.59296400    93.65696565
 C     22  21  17     2.752085135011   119.74764564   305.64944394
 S     26  22  21     3.367395499498   122.11811255   179.27893141
 C     13  12  11     2.780972191899   117.88083574   183.89618701
 C     28  13  12     2.612470771121   126.82091914   319.70921086
 N     26  22  21     2.500513097725   124.70221455   359.29528475
 H     23  22  21     2.046396730344   126.96151091   179.56124434
 H     29  28  13     2.056848527614   123.88379921   352.69655061
 C     25  21  17     2.790050127110   125.52760131   144.37368178
 C     33  25  21     2.718847623374   123.14316221    45.58965266
 C     34  33  25     2.709133522726   118.57841760   189.25543516
 C     35  34  33     2.687331813715   119.63635208   356.40843336
 C     36  35  34     2.603433174645   120.67636031   359.26162587
 C     33  25  21     2.630612340611   117.45731249   229.09182980
 C     35  34  33     2.691331250546   120.12071235   177.17903963
 C     39  35  34     2.605208496117   120.69063426     1.49963474
 C     40  39  35     2.665675763757   120.26443188     1.95107867
 C     41  40  39     2.631033338236   120.21475700   358.21602568
 O     42  41  40     2.556817419103   118.99117875   175.33756383
 H     41  40  39     2.054487418670   120.16530070   176.94884706
 H     37  36  35     2.053752720650   120.46652930   181.15103443
 H     38  33  25     2.056052123582   119.15401206   355.93818068
 H     40  39  35     2.052892727177   120.38269121   180.23805733
 H     39  35  34     2.053068883070   118.83801908   181.08062904
 H     43  42  41     1.825282824794   110.65523780     5.40730675
 H     10   8   7     2.052736416772   121.31881084   179.93084116
 H     36  35  34     2.054956691569   118.86060446   180.18991963

---------------------
BASIS SET INFORMATION
---------------------
There are 5 groups of distinct atoms

 Group   1 Type C   : 11s6p2d1f contracted to 5s3p2d1f pattern {62111/411/11/1}
 Group   2 Type N   : 11s6p2d1f contracted to 5s3p2d1f pattern {62111/411/11/1}
 Group   3 Type H   : 5s1p contracted to 3s1p pattern {311/1}
 Group   4 Type S   : 14s9p3d1f contracted to 5s5p2d1f pattern {73211/51111/21/1}
 Group   5 Type O   : 11s6p2d1f contracted to 5s3p2d1f pattern {62111/411/11/1}

Atom   0C    basis set group =>   1
Atom   1C    basis set group =>   1
Atom   2C    basis set group =>   1
Atom   3C    basis set group =>   1
Atom   4C    basis set group =>   1
Atom   5C    basis set group =>   1
Atom   6C    basis set group =>   1
Atom   7C    basis set group =>   1
Atom   8N    basis set group =>   2
Atom   9C    basis set group =>   1
Atom  10C    basis set group =>   1
Atom  11C    basis set group =>   1
Atom  12C    basis set group =>   1
Atom  13H    basis set group =>   3
Atom  14H    basis set group =>   3
Atom  15H    basis set group =>   3
Atom  16H    basis set group =>   3
Atom  17H    basis set group =>   3
Atom  18H    basis set group =>   3
Atom  19H    basis set group =>   3
Atom  20N    basis set group =>   2
Atom  21C    basis set group =>   1
Atom  22C    basis set group =>   1
Atom  23S    basis set group =>   4
Atom  24C    basis set group =>   1
Atom  25C    basis set group =>   1
Atom  26S    basis set group =>   4
Atom  27C    basis set group =>   1
Atom  28C    basis set group =>   1
Atom  29N    basis set group =>   2
Atom  30H    basis set group =>   3
Atom  31H    basis set group =>   3
Atom  32C    basis set group =>   1
Atom  33C    basis set group =>   1
Atom  34C    basis set group =>   1
Atom  35C    basis set group =>   1
Atom  36C    basis set group =>   1
Atom  37C    basis set group =>   1
Atom  38C    basis set group =>   1
Atom  39C    basis set group =>   1
Atom  40C    basis set group =>   1
Atom  41C    basis set group =>   1
Atom  42O    basis set group =>   5
Atom  43H    basis set group =>   3
Atom  44H    basis set group =>   3
Atom  45H    basis set group =>   3
Atom  46H    basis set group =>   3
Atom  47H    basis set group =>   3
Atom  48H    basis set group =>   3
Atom  49H    basis set group =>   3
Atom  50H    basis set group =>   3
-------------------------------
AUXILIARY BASIS SET INFORMATION
-------------------------------
There are 5 groups of distinct atoms

 Group   1 Type C   : 12s5p4d2f1g contracted to 6s4p3d1f1g pattern {711111/2111/211/2/1}
 Group   2 Type N   : 12s5p4d2f1g contracted to 6s4p3d1f1g pattern {711111/2111/211/2/1}
 Group   3 Type H   : 5s2p1d contracted to 3s1p1d pattern {311/2/1}
 Group   4 Type S   : 14s5p5d2f1g contracted to 8s4p3d1f1g pattern {71111111/2111/311/2/1}
 Group   5 Type O   : 12s5p4d2f1g contracted to 6s4p3d1f1g pattern {711111/2111/211/2/1}

Atom   0C    basis set group =>   1
Atom   1C    basis set group =>   1
Atom   2C    basis set group =>   1
Atom   3C    basis set group =>   1
Atom   4C    basis set group =>   1
Atom   5C    basis set group =>   1
Atom   6C    basis set group =>   1
Atom   7C    basis set group =>   1
Atom   8N    basis set group =>   2
Atom   9C    basis set group =>   1
Atom  10C    basis set group =>   1
Atom  11C    basis set group =>   1
Atom  12C    basis set group =>   1
Atom  13H    basis set group =>   3
Atom  14H    basis set group =>   3
Atom  15H    basis set group =>   3
Atom  16H    basis set group =>   3
Atom  17H    basis set group =>   3
Atom  18H    basis set group =>   3
Atom  19H    basis set group =>   3
Atom  20N    basis set group =>   2
Atom  21C    basis set group =>   1
Atom  22C    basis set group =>   1
Atom  23S    basis set group =>   4
Atom  24C    basis set group =>   1
Atom  25C    basis set group =>   1
Atom  26S    basis set group =>   4
Atom  27C    basis set group =>   1
Atom  28C    basis set group =>   1
Atom  29N    basis set group =>   2
Atom  30H    basis set group =>   3
Atom  31H    basis set group =>   3
Atom  32C    basis set group =>   1
Atom  33C    basis set group =>   1
Atom  34C    basis set group =>   1
Atom  35C    basis set group =>   1
Atom  36C    basis set group =>   1
Atom  37C    basis set group =>   1
Atom  38C    basis set group =>   1
Atom  39C    basis set group =>   1
Atom  40C    basis set group =>   1
Atom  41C    basis set group =>   1
Atom  42O    basis set group =>   5
Atom  43H    basis set group =>   3
Atom  44H    basis set group =>   3
Atom  45H    basis set group =>   3
Atom  46H    basis set group =>   3
Atom  47H    basis set group =>   3
Atom  48H    basis set group =>   3
Atom  49H    basis set group =>   3
Atom  50H    basis set group =>   3
-------------------------
ECP PARAMETER INFORMATION
-------------------------





           ************************************************************
           *        Program running with 24 parallel MPI-processes    *
           *              working on a common directory               *
           ************************************************************
------------------------------------------------------------------------------
                           ORCA GTO INTEGRAL CALCULATION
                           -- RI-GTO INTEGRALS CHOSEN --
------------------------------------------------------------------------------

                         BASIS SET STATISTICS AND STARTUP INFO

Gaussian basis set:
 # of primitive gaussian shells          ...  796
 # of primitive gaussian functions       ... 1734
 # of contracted shells                  ...  446
 # of contracted basis functions         ... 1168
 Highest angular momentum                ...    3
 Maximum contraction depth               ...    7
Auxiliary gaussian basis set:
 # of primitive gaussian shells          ...  958
 # of primitive gaussian functions       ... 2666
 # of contracted shells                  ...  599
 # of contracted aux-basis functions     ... 1857
 Highest angular momentum                ...    4
 Maximum contraction depth               ...    7
Ratio of auxiliary to basis functions    ...  1.59
Integral package used                  ... LIBINT
 One Electron integrals                  
   ECP integrals                         ... done
 Ordering auxiliary basis shells         ... done
 Integral threshhold             Thresh  ...  2.500e-11
 Primitive cut-off               TCut    ...  2.500e-12
 Pre-screening matrix                    ... done
 Shell pair data                         ... 
 Ordering of the shell pairs             ... done (   0.018 sec) 51173 of 99681 pairs
 Determination of significant pairs      ... done (   0.000 sec)
 Creation of shell pair data             ... done (   0.012 sec)
 Storage of shell pair data              ... done (   0.128 sec)
 Shell pair data done in (   0.159 sec)
 Computing two index integrals           ... done
 Cholesky decomposition of the V-matrix  ... done


Timings:
 Total evaluation time                   ...   6.159 sec (  0.103 min)
 One electron matrix time                ...   1.903 sec (  0.032 min) = 30.9%
 Schwartz matrix evaluation time         ...   2.965 sec (  0.049 min) = 48.1%
 Two index repulsion integral time       ...   0.452 sec (  0.008 min) =  7.3%
 Cholesky decomposition of V             ...   0.644 sec (  0.011 min) = 10.4%
 Three index repulsion integral time     ...   0.000 sec (  0.000 min) =  0.0%



           ************************************************************
           *        Program running with 24 parallel MPI-processes    *
           *              working on a common directory               *
           ************************************************************
-------------------------------------------------------------------------------
                                 ORCA SCF
-------------------------------------------------------------------------------

------------
SCF SETTINGS
------------
Hamiltonian:
 Density Functional     Method          .... DFT(GTOs)
 Exchange Functional    Exchange        .... WB97X-D3
 Correlation Functional Correlation     .... WB97X-D3
 Gradients option       PostSCFGGA      .... off
 Hybrid DFT is turned on
   Fraction HF Exchange ScalHFX         ....  0.195728
   Scaling of DF-GGA-X  ScalDFX         ....  0.000000
   Scaling of DF-GGA-C  ScalDFC         ....  1.000000
   Scaling of DF-LDA-C  ScalLDAC        ....  1.000000
   Perturbative correction              ....  0.000000
 Long-range corrected/Screened/Range-Separated Hybrid DFT is turned on
   Amount of maximum screened exact exchange              ....  0.804272
   Range separation parameter mu (erf(mu*r12)/r12)        ....  0.250000
 RI-approximation to the Coulomb term is turned on
   Number of auxiliary basis functions  .... 1857
   RIJ-COSX (HFX calculated with COS-X)).... on


General Settings:
 Integral files         IntName         .... total
 Hartree-Fock type      HFTyp           .... RHF
 Total Charge           Charge          ....    0
 Multiplicity           Mult            ....    1
 Number of Electrons    NEL             ....  246
 Basis Dimension        Dim             .... 1168
 Nuclear Repulsion      ENuc            ....   3386.0288887146 Eh

Convergence Acceleration:
 DIIS                   CNVDIIS         .... on
   Start iteration      DIISMaxIt       ....    12
   Startup error        DIISStart       ....  0.200000
   # of expansion vecs  DIISMaxEq       ....     5
   Bias factor          DIISBfac        ....   1.050
   Max. coefficient     DIISMaxC        ....  10.000
 Newton-Raphson         CNVNR           .... off
 SOSCF                  CNVSOSCF        .... on
   Start iteration      SOSCFMaxIt      ....   150
   Startup grad/error   SOSCFStart      ....  0.003300
 Level Shifting         CNVShift        .... on
   Level shift para.    LevelShift      ....    0.2500
   Turn off err/grad.   ShiftErr        ....    0.0010
 Zerner damping         CNVZerner       .... off
 Static damping         CNVDamp         .... on
   Fraction old density DampFac         ....    0.7000
   Max. Damping (<1)    DampMax         ....    0.9800
   Min. Damping (>=0)   DampMin         ....    0.0000
   Turn off err/grad.   DampErr         ....    0.1000
 Fernandez-Rico         CNVRico         .... off

SCF Procedure:
 Maximum # iterations   MaxIter         ....   125
 SCF integral mode      SCFMode         .... Direct
   Integral package                     .... LIBINT
 Reset frequeny         DirectResetFreq ....    20
 Integral Threshold     Thresh          ....  2.500e-11 Eh
 Primitive CutOff       TCut            ....  2.500e-12 Eh

Convergence Tolerance:
 Convergence Check Mode ConvCheckMode   .... Total+1el-Energy
 Convergence forced     ConvForced      .... 1
 Energy Change          TolE            ....  1.000e-08 Eh
 1-El. energy change                    ....  1.000e-05 Eh
 Orbital Gradient       TolG            ....  1.000e-05
 Orbital Rotation angle TolX            ....  1.000e-05
 DIIS Error             TolErr          ....  5.000e-07


Diagonalization of the overlap matrix:
Smallest eigenvalue                        ... 5.517e-06
Time for diagonalization                   ...    0.663 sec
Threshold for overlap eigenvalues          ... 1.000e-08
Number of eigenvalues below threshold      ... 0
Time for construction of square roots      ...    0.531 sec
Total time needed                          ...    1.203 sec

-------------------
DFT GRID GENERATION
-------------------

General Integration Accuracy     IntAcc      ...  5.010
Radial Grid Type                 RadialGrid  ... Gauss-Chebyshev
Angular Grid (max. acc.)         AngularGrid ... Lebedev-434
Angular grid pruning method      GridPruning ... 3 (G Style)
Weight generation scheme         WeightScheme... Becke
Basis function cutoff            BFCut       ...    1.0000e-11
Integration weight cutoff        WCut        ...    1.0000e-14
Grids for H and He will be reduced by one unit

# of grid points (after initial pruning)     ... 479400 (   0.0 sec)
# of grid points (after weights+screening)   ... 418812 (   1.9 sec)
nearest neighbour list constructed           ...    0.0 sec
Grid point re-assignment to atoms done       ...    0.3 sec
Grid point division into batches done        ...    5.2 sec
Reduced shell lists constructed in    6.3 sec

Total number of grid points                  ...   418812
Total number of batches                      ...     6572
Average number of points per batch           ...       63
Average number of grid points per atom       ...     8212
Average number of shells per batch           ...   141.15 (31.65%)
Average number of basis functions per batch  ...   367.41 (31.46%)
Average number of large shells per batch     ...    96.67 (68.49%)
Average number of large basis fcns per batch ...   250.99 (68.31%)
Maximum spatial batch extension              ...  10.41, 16.91, 17.76 au
Average spatial batch extension              ...   0.05,  0.06,  0.06 au

Time for grid setup =    8.866 sec

------------------------------
INITIAL GUESS: MODEL POTENTIAL
------------------------------
Loading Hartree-Fock densities                     ... done
Calculating cut-offs                               ... done
Setting up the integral package                    ... done
Initializing the effective Hamiltonian             ... done
Starting the Coulomb interaction                   ... done (   0.7 sec)
Reading the grid                                   ... done
Mapping shells                                     ... done
Starting the XC term evaluation                    ... done (   2.4 sec)
  promolecular density results
     # of electrons  =    245.991720874
     EX              =   -225.837788098
     EC              =     -8.481394314
     EX+EC           =   -234.319182412
Transforming the Hamiltonian                       ... done (   0.3 sec)
Diagonalizing the Hamiltonian                      ... done (   0.5 sec)
Back transforming the eigenvectors                 ... done (   0.2 sec)
Now organizing SCF variables                       ... done
                      ------------------
                      INITIAL GUESS DONE (  13.2 sec)
                      ------------------
--------------------
COSX GRID GENERATION
--------------------

General Integration Accuracy     IntAcc      ...  3.340
Radial Grid Type                 RadialGrid  ... Gauss-Chebyshev
Angular Grid (max. acc.)         AngularGrid ... Lebedev-50
Angular grid pruning method      GridPruning ... 3 (G Style)
Weight generation scheme         WeightScheme... Becke
Basis function cutoff            BFCut       ...    1.0000e-11
Integration weight cutoff        WCut        ...    1.0000e-14
Grids for H and He will be reduced by one unit

# of grid points (after initial pruning)     ...  25370 (   0.0 sec)
# of grid points (after weights+screening)   ...  22996 (   0.1 sec)
nearest neighbour list constructed           ...    0.0 sec
Grid point re-assignment to atoms done       ...    0.0 sec
Grid point division into batches done        ...    0.0 sec
Reduced shell lists constructed in    0.1 sec

Total number of grid points                  ...    22996
Total number of batches                      ...      384
Average number of points per batch           ...       59
Average number of grid points per atom       ...      451
Average number of shells per batch           ...   153.41 (34.40%)
Average number of basis functions per batch  ...   402.71 (34.48%)
Average number of large shells per batch     ...   106.35 (69.33%)
Average number of large basis fcns per batch ...   280.47 (69.65%)
Maximum spatial batch extension              ...   8.71, 12.06, 11.81 au
Average spatial batch extension              ...   0.12,  0.18,  0.20 au

Overlap Fitting                  UseSFitting ... on
Constructing numerical overlap ... done (      0.1 sec)
Inverting numerical overlap    ... done (      0.2 sec)
Obtaining analytic overlap     ... done (      0.0 sec)
Final contraction and storage  ... done (      0.6 sec)


General Integration Accuracy     IntAcc      ...  3.670
Radial Grid Type                 RadialGrid  ... Gauss-Chebyshev
Angular Grid (max. acc.)         AngularGrid ... Lebedev-50
Angular grid pruning method      GridPruning ... 3 (G Style)
Weight generation scheme         WeightScheme... Becke
Basis function cutoff            BFCut       ...    1.0000e-11
Integration weight cutoff        WCut        ...    1.0000e-14
Grids for H and He will be reduced by one unit

# of grid points (after initial pruning)     ...  31768 (   0.0 sec)
# of grid points (after weights+screening)   ...  28704 (   0.1 sec)
nearest neighbour list constructed           ...    0.0 sec
Grid point re-assignment to atoms done       ...    0.0 sec
Grid point division into batches done        ...    0.0 sec
Reduced shell lists constructed in    0.1 sec

Total number of grid points                  ...    28704
Total number of batches                      ...      473
Average number of points per batch           ...       60
Average number of grid points per atom       ...      563
Average number of shells per batch           ...   155.38 (34.84%)
Average number of basis functions per batch  ...   409.00 (35.02%)
Average number of large shells per batch     ...   108.29 (69.69%)
Average number of large basis fcns per batch ...   286.19 (69.97%)
Maximum spatial batch extension              ...   6.32, 13.31, 13.09 au
Average spatial batch extension              ...   0.11,  0.17,  0.18 au

Overlap Fitting                  UseSFitting ... on
Constructing numerical overlap ... done (      0.2 sec)
Inverting numerical overlap    ... done (      0.2 sec)
Obtaining analytic overlap     ... done (      0.0 sec)
Final contraction and storage  ... done (      0.6 sec)


General Integration Accuracy     IntAcc      ...  4.010
Radial Grid Type                 RadialGrid  ... Gauss-Chebyshev
Angular Grid (max. acc.)         AngularGrid ... Lebedev-110
Angular grid pruning method      GridPruning ... 3 (G Style)
Weight generation scheme         WeightScheme... Becke
Basis function cutoff            BFCut       ...    1.0000e-11
Integration weight cutoff        WCut        ...    1.0000e-14
Grids for H and He will be reduced by one unit

# of grid points (after initial pruning)     ...  61550 (   0.0 sec)
# of grid points (after weights+screening)   ...  55265 (   0.3 sec)
nearest neighbour list constructed           ...    0.0 sec
Grid point re-assignment to atoms done       ...    0.0 sec
Grid point division into batches done        ...    0.1 sec
Reduced shell lists constructed in    0.3 sec

Total number of grid points                  ...    55265
Total number of batches                      ...      887
Average number of points per batch           ...       62
Average number of grid points per atom       ...     1084
Average number of shells per batch           ...   151.34 (33.93%)
Average number of basis functions per batch  ...   397.50 (34.03%)
Average number of large shells per batch     ...   105.53 (69.73%)
Average number of large basis fcns per batch ...   278.00 (69.94%)
Maximum spatial batch extension              ...   6.78, 15.07, 18.24 au
Average spatial batch extension              ...   0.09,  0.15,  0.14 au

Overlap Fitting                  UseSFitting ... on
Constructing numerical overlap ... done (      0.2 sec)
Inverting numerical overlap    ... done (      0.2 sec)
Obtaining analytic overlap     ... done (      0.0 sec)
Final contraction and storage  ... done (      0.6 sec)

Time for X-Grid setup             =    4.444 sec
--------------
SCF ITERATIONS
--------------
ITER       Energy         Delta-E        Max-DP      RMS-DP      [F,P]     Damp
               ***  Starting incremental Fock matrix formation  ***
  0  -2112.4214384411   0.000000000000 0.04937346  0.00066443  0.2106835 0.7000
  1  -2112.7318837244  -0.310445283279 0.04379386  0.00052775  0.1059813 0.7000
                               ***Turning on DIIS***
  2  -2112.8826111344  -0.150727410013 0.06017506  0.00104987  0.0549136 0.0000
  3  -2113.1285515180  -0.245940383587 0.06679532  0.00040211  0.0471760 0.0000
  4  -2113.1700754985  -0.041523980557 0.01500323  0.00012671  0.0113551 0.0000
  5  -2113.1720330577  -0.001957559187 0.00703516  0.00005896  0.0067480 0.0000
                      *** Initiating the SOSCF procedure ***
                           *** Shutting down DIIS ***
                      *** Re-Reading the Fockian *** 
                      *** Removing any level shift *** 
ITER      Energy       Delta-E        Grad      Rot      Max-DP    RMS-DP
  6  -2113.17247869  -0.0004456350  0.001930  0.001930  0.003800  0.000036
               *** Restarting incremental Fock matrix formation ***
  7  -2113.17263075  -0.0001520595  0.001263  0.003486  0.010083  0.000089
  8  -2113.17269873  -0.0000679774  0.000478  0.003688  0.006590  0.000058
  9  -2113.17271506  -0.0000163334  0.000280  0.000640  0.004847  0.000044
 10  -2113.17272309  -0.0000080247  0.000073  0.000230  0.000726  0.000007
 11  -2113.17272336  -0.0000002732  0.000047  0.000092  0.000552  0.000005
 12  -2113.17272375  -0.0000003857  0.000011  0.000046  0.000204  0.000001
 13  -2113.17272374   0.0000000094  0.000007  0.000015  0.000242  0.000002
                  ***Gradient check signals convergence***
              ***Rediagonalizing the Fockian in SOSCF/NRSCF***

               *****************************************************
               *                     SUCCESS                       *
               *           SCF CONVERGED AFTER  14 CYCLES          *
               *****************************************************

Old exchange energy                            =    -71.242847563 Eh
New exchange energy                            =    -71.243399201 Eh
Exchange energy change after final integration =     -0.000551638 Eh
Total energy after final integration           =  -2113.173275437 Eh
Final COS-X integration done in                =    53.613 sec

----------------
TOTAL SCF ENERGY
----------------

Total Energy       :        -2113.17327544 Eh          -57502.36819 eV

Components:
Nuclear Repulsion  :         3386.02888871 Eh           92138.53029 eV
Electronic Energy  :        -5499.20216415 Eh         -149640.89848 eV
One Electron Energy:        -9622.32469178 Eh         -261836.76639 eV
Two Electron Energy:         4123.12252763 Eh          112195.86790 eV

Virial components:
Potential Energy   :        -4217.83076648 Eh         -114773.01010 eV
Kinetic Energy     :         2104.65749104 Eh           57270.64191 eV
Virial Ratio       :            2.00404616


DFT components:
N(Alpha)           :      122.999990419761 electrons
N(Beta)            :      122.999990419761 electrons
N(Total)           :      245.999980839521 electrons
E(XC)              :     -167.540049115781 Eh       

---------------
SCF CONVERGENCE
---------------

  Last Energy change         ...   -6.2334e-08  Tolerance :   1.0000e-08
  Last MAX-Density change    ...    5.9159e-14  Tolerance :   1.0000e-07
  Last RMS-Density change    ...    1.5425e-16  Tolerance :   5.0000e-09
  Last Orbital Gradient      ...    2.2107e-06  Tolerance :   1.0000e-05
  Last Orbital Rotation      ...    7.7126e-06  Tolerance :   1.0000e-05

             **** THE GBW FILE WAS UPDATED (total.gbw) ****
             **** DENSITY FILE WAS UPDATED (total.scfp.tmp) ****
             **** ENERGY FILE WAS UPDATED (total.en.tmp) ****
----------------
ORBITAL ENERGIES
----------------

  NO   OCC          E(Eh)            E(eV) 
   0   2.0000     -88.988714     -2421.5060 
   1   2.0000     -88.984488     -2421.3910 
   2   2.0000     -19.259440      -524.0760 
   3   2.0000     -14.468744      -393.7145 
   4   2.0000     -14.423560      -392.4850 
   5   2.0000     -14.422878      -392.4665 
   6   2.0000     -10.357985      -281.8551 
   7   2.0000     -10.356152      -281.8052 
   8   2.0000     -10.353681      -281.7380 
   9   2.0000     -10.331586      -281.1368 
  10   2.0000     -10.329556      -281.0815 
  11   2.0000     -10.326418      -280.9961 
  12   2.0000     -10.324507      -280.9441 
  13   2.0000     -10.321705      -280.8679 
  14   2.0000     -10.313881      -280.6550 
  15   2.0000     -10.311404      -280.5876 
  16   2.0000     -10.310682      -280.5679 
  17   2.0000     -10.305946      -280.4391 
  18   2.0000     -10.302102      -280.3344 
  19   2.0000     -10.295858      -280.1645 
  20   2.0000     -10.294504      -280.1277 
  21   2.0000     -10.292100      -280.0623 
  22   2.0000     -10.290712      -280.0245 
  23   2.0000     -10.290569      -280.0206 
  24   2.0000     -10.290534      -280.0197 
  25   2.0000     -10.289140      -279.9817 
  26   2.0000     -10.288509      -279.9646 
  27   2.0000     -10.286740      -279.9164 
  28   2.0000     -10.285166      -279.8736 
  29   2.0000     -10.284178      -279.8467 
  30   2.0000     -10.282652      -279.8052 
  31   2.0000     -10.281982      -279.7870 
  32   2.0000     -10.278540      -279.6933 
  33   2.0000     -10.275406      -279.6080 
  34   2.0000      -8.085043      -220.0052 
  35   2.0000      -8.081263      -219.9023 
  36   2.0000      -6.038184      -164.3073 
  37   2.0000      -6.034306      -164.2018 
  38   2.0000      -6.034076      -164.1955 
  39   2.0000      -6.032330      -164.1481 
  40   2.0000      -6.030456      -164.0971 
  41   2.0000      -6.028405      -164.0412 
  42   2.0000      -1.182361       -32.1737 
  43   2.0000      -1.105504       -30.0823 
  44   2.0000      -1.083539       -29.4846 
  45   2.0000      -1.064416       -28.9642 
  46   2.0000      -0.998570       -27.1725 
  47   2.0000      -0.977322       -26.5943 
  48   2.0000      -0.965935       -26.2844 
  49   2.0000      -0.947208       -25.7748 
  50   2.0000      -0.919909       -25.0320 
  51   2.0000      -0.915124       -24.9018 
  52   2.0000      -0.907624       -24.6977 
  53   2.0000      -0.897730       -24.4285 
  54   2.0000      -0.887367       -24.1465 
  55   2.0000      -0.868622       -23.6364 
  56   2.0000      -0.866352       -23.5746 
  57   2.0000      -0.850085       -23.1320 
  58   2.0000      -0.840183       -22.8626 
  59   2.0000      -0.836799       -22.7705 
  60   2.0000      -0.812563       -22.1110 
  61   2.0000      -0.765868       -20.8403 
  62   2.0000      -0.755513       -20.5586 
  63   2.0000      -0.741127       -20.1671 
  64   2.0000      -0.732504       -19.9324 
  65   2.0000      -0.724776       -19.7222 
  66   2.0000      -0.720784       -19.6135 
  67   2.0000      -0.713533       -19.4162 
  68   2.0000      -0.694007       -18.8849 
  69   2.0000      -0.682098       -18.5608 
  70   2.0000      -0.668301       -18.1854 
  71   2.0000      -0.646894       -17.6029 
  72   2.0000      -0.640987       -17.4421 
  73   2.0000      -0.635176       -17.2840 
  74   2.0000      -0.623143       -16.9566 
  75   2.0000      -0.621469       -16.9110 
  76   2.0000      -0.612908       -16.6781 
  77   2.0000      -0.609105       -16.5746 
  78   2.0000      -0.594599       -16.1799 
  79   2.0000      -0.580294       -15.7906 
  80   2.0000      -0.566257       -15.4086 
  81   2.0000      -0.562821       -15.3151 
  82   2.0000      -0.557243       -15.1634 
  83   2.0000      -0.555185       -15.1074 
  84   2.0000      -0.546261       -14.8645 
  85   2.0000      -0.539706       -14.6862 
  86   2.0000      -0.537230       -14.6188 
  87   2.0000      -0.534278       -14.5384 
  88   2.0000      -0.532045       -14.4777 
  89   2.0000      -0.530060       -14.4237 
  90   2.0000      -0.525656       -14.3038 
  91   2.0000      -0.521821       -14.1995 
  92   2.0000      -0.510512       -13.8918 
  93   2.0000      -0.509734       -13.8706 
  94   2.0000      -0.505995       -13.7688 
  95   2.0000      -0.495233       -13.4760 
  96   2.0000      -0.489945       -13.3321 
  97   2.0000      -0.476638       -12.9700 
  98   2.0000      -0.473515       -12.8850 
  99   2.0000      -0.467970       -12.7341 
 100   2.0000      -0.466103       -12.6833 
 101   2.0000      -0.464455       -12.6385 
 102   2.0000      -0.462471       -12.5845 
 103   2.0000      -0.450286       -12.2529 
 104   2.0000      -0.445670       -12.1273 
 105   2.0000      -0.442342       -12.0367 
 106   2.0000      -0.439047       -11.9471 
 107   2.0000      -0.433655       -11.8003 
 108   2.0000      -0.433110       -11.7855 
 109   2.0000      -0.423439       -11.5224 
 110   2.0000      -0.390437       -10.6243 
 111   2.0000      -0.381688       -10.3863 
 112   2.0000      -0.378214       -10.2917 
 113   2.0000      -0.369968       -10.0673 
 114   2.0000      -0.365445        -9.9443 
 115   2.0000      -0.355248        -9.6668 
 116   2.0000      -0.350400        -9.5349 
 117   2.0000      -0.338470        -9.2102 
 118   2.0000      -0.335541        -9.1305 
 119   2.0000      -0.308401        -8.3920 
 120   2.0000      -0.297308        -8.0902 
 121   2.0000      -0.286167        -7.7870 
 122   2.0000      -0.277167        -7.5421 
 123   0.0000      -0.003169        -0.0862 
 124   0.0000       0.005968         0.1624 
 125   0.0000       0.033058         0.8995 
 126   0.0000       0.043423         1.1816 
 127   0.0000       0.058602         1.5946 
 128   0.0000       0.066333         1.8050 
 129   0.0000       0.080363         2.1868 
 130   0.0000       0.088677         2.4130 
 131   0.0000       0.093081         2.5329 
 132   0.0000       0.100965         2.7474 
 133   0.0000       0.108022         2.9394 
 134   0.0000       0.110170         2.9979 
 135   0.0000       0.114900         3.1266 
 136   0.0000       0.115665         3.1474 
 137   0.0000       0.134042         3.6475 
 138   0.0000       0.135897         3.6979 
 139   0.0000       0.139330         3.7914 
 140   0.0000       0.143313         3.8997 
 141   0.0000       0.148864         4.0508 
 142   0.0000       0.155003         4.2179 
 143   0.0000       0.158259         4.3065 
 144   0.0000       0.159947         4.3524 
 145   0.0000       0.165273         4.4973 
 146   0.0000       0.166612         4.5337 
 147   0.0000       0.171264         4.6603 
 148   0.0000       0.174351         4.7443 
 149   0.0000       0.177799         4.8382 
 150   0.0000       0.181806         4.9472 
 151   0.0000       0.186476         5.0743 
 152   0.0000       0.191413         5.2086 
 153   0.0000       0.194288         5.2869 
 154   0.0000       0.198637         5.4052 
 155   0.0000       0.199475         5.4280 
 156   0.0000       0.206295         5.6136 
 157   0.0000       0.210312         5.7229 
 158   0.0000       0.214712         5.8426 
 159   0.0000       0.222227         6.0471 
 160   0.0000       0.226989         6.1767 
 161   0.0000       0.231817         6.3081 
 162   0.0000       0.239896         6.5279 
 163   0.0000       0.242616         6.6019 
 164   0.0000       0.250724         6.8225 
 165   0.0000       0.251483         6.8432 
 166   0.0000       0.257410         7.0045 
 167   0.0000       0.259301         7.0559 
 168   0.0000       0.262651         7.1471 
 169   0.0000       0.265232         7.2173 
 170   0.0000       0.267915         7.2903 
 171   0.0000       0.268916         7.3176 
 172   0.0000       0.276428         7.5220 
 173   0.0000       0.281472         7.6592 
 174   0.0000       0.282181         7.6785 
 175   0.0000       0.285487         7.7685 
 176   0.0000       0.292747         7.9661 
 177   0.0000       0.296000         8.0546 
 178   0.0000       0.296792         8.0761 
 179   0.0000       0.298794         8.1306 
 180   0.0000       0.300278         8.1710 
 181   0.0000       0.302126         8.2213 
 182   0.0000       0.303316         8.2536 
 183   0.0000       0.305572         8.3150 
 184   0.0000       0.310069         8.4374 
 185   0.0000       0.311547         8.4776 
 186   0.0000       0.314400         8.5552 
 187   0.0000       0.319257         8.6874 
 188   0.0000       0.323657         8.8072 
 189   0.0000       0.326224         8.8770 
 190   0.0000       0.326929         8.8962 
 191   0.0000       0.330549         8.9947 
 192   0.0000       0.333239         9.0679 
 193   0.0000       0.337675         9.1886 
 194   0.0000       0.338824         9.2199 
 195   0.0000       0.342552         9.3213 
 196   0.0000       0.349201         9.5022 
 197   0.0000       0.352464         9.5910 
 198   0.0000       0.355526         9.6744 
 199   0.0000       0.355883         9.6841 
 200   0.0000       0.360007         9.7963 
 201   0.0000       0.360731         9.8160 
 202   0.0000       0.365532         9.9466 
 203   0.0000       0.369026        10.0417 
 204   0.0000       0.370555        10.0833 
 205   0.0000       0.372887        10.1468 
 206   0.0000       0.375598        10.2205 
 207   0.0000       0.379148        10.3171 
 208   0.0000       0.381567        10.3830 
 209   0.0000       0.386014        10.5040 
 210   0.0000       0.389462        10.5978 
 211   0.0000       0.394824        10.7437 
 212   0.0000       0.395795        10.7701 
 213   0.0000       0.398675        10.8485 
 214   0.0000       0.403910        10.9909 
 215   0.0000       0.407569        11.0905 
 216   0.0000       0.410978        11.1833 
 217   0.0000       0.413120        11.2416 
 218   0.0000       0.416394        11.3307 
 219   0.0000       0.419603        11.4180 
 220   0.0000       0.422760        11.5039 
 221   0.0000       0.427341        11.6285 
 222   0.0000       0.428415        11.6578 
 223   0.0000       0.431196        11.7334 
 224   0.0000       0.433797        11.8042 
 225   0.0000       0.434561        11.8250 
 226   0.0000       0.439160        11.9501 
 227   0.0000       0.441349        12.0097 
 228   0.0000       0.442579        12.0432 
 229   0.0000       0.446316        12.1449 
 230   0.0000       0.448759        12.2114 
 231   0.0000       0.451677        12.2908 
 232   0.0000       0.453279        12.3343 
 233   0.0000       0.456286        12.4162 
 234   0.0000       0.462905        12.5963 
 235   0.0000       0.464405        12.6371 
 236   0.0000       0.466775        12.7016 
 237   0.0000       0.469312        12.7706 
 238   0.0000       0.470939        12.8149 
 239   0.0000       0.472531        12.8582 
 240   0.0000       0.476460        12.9651 
 241   0.0000       0.478634        13.0243 
 242   0.0000       0.479770        13.0552 
 243   0.0000       0.483666        13.1612 
 244   0.0000       0.490649        13.3512 
 245   0.0000       0.491291        13.3687 
 246   0.0000       0.492895        13.4124 
 247   0.0000       0.493904        13.4398 
 248   0.0000       0.497295        13.5321 
 249   0.0000       0.499460        13.5910 
 250   0.0000       0.501554        13.6480 
 251   0.0000       0.503934        13.7127 
 252   0.0000       0.505185        13.7468 
 253   0.0000       0.513094        13.9620 
 254   0.0000       0.514869        14.0103 
 255   0.0000       0.517724        14.0880 
 256   0.0000       0.520135        14.1536 
 257   0.0000       0.523952        14.2575 
 258   0.0000       0.524662        14.2768 
 259   0.0000       0.531140        14.4531 
 260   0.0000       0.531674        14.4676 
 261   0.0000       0.535908        14.5828 
 262   0.0000       0.541395        14.7321 
 263   0.0000       0.547049        14.8860 
 264   0.0000       0.549742        14.9593 
 265   0.0000       0.551185        14.9985 
 266   0.0000       0.554304        15.0834 
 267   0.0000       0.557360        15.1665 
 268   0.0000       0.560619        15.2552 
 269   0.0000       0.565037        15.3754 
 270   0.0000       0.566868        15.4253 
 271   0.0000       0.568650        15.4738 
 272   0.0000       0.572737        15.5850 
 273   0.0000       0.575927        15.6718 
 274   0.0000       0.577513        15.7149 
 275   0.0000       0.581084        15.8121 
 276   0.0000       0.586566        15.9613 
 277   0.0000       0.588622        16.0172 
 278   0.0000       0.592913        16.1340 
 279   0.0000       0.595541        16.2055 
 280   0.0000       0.599230        16.3059 
 281   0.0000       0.603917        16.4334 
 282   0.0000       0.607501        16.5309 
 283   0.0000       0.614570        16.7233 
 284   0.0000       0.616863        16.7857 
 285   0.0000       0.620844        16.8940 
 286   0.0000       0.624105        16.9828 
 287   0.0000       0.629457        17.1284 
 288   0.0000       0.633072        17.2268 
 289   0.0000       0.639950        17.4139 
 290   0.0000       0.649872        17.6839 
 291   0.0000       0.652811        17.7639 
 292   0.0000       0.654873        17.8200 
 293   0.0000       0.659453        17.9446 
 294   0.0000       0.663315        18.0497 
 295   0.0000       0.664607        18.0849 
 296   0.0000       0.673380        18.3236 
 297   0.0000       0.678654        18.4671 
 298   0.0000       0.683091        18.5878 
 299   0.0000       0.684606        18.6291 
 300   0.0000       0.688955        18.7474 
 301   0.0000       0.695653        18.9297 
 302   0.0000       0.700454        19.0603 
 303   0.0000       0.702950        19.1282 
 304   0.0000       0.703401        19.1405 
 305   0.0000       0.706664        19.2293 
 306   0.0000       0.708371        19.2758 
 307   0.0000       0.713237        19.4082 
 308   0.0000       0.716508        19.4972 
 309   0.0000       0.722028        19.6474 
 310   0.0000       0.722213        19.6524 
 311   0.0000       0.724695        19.7200 
 312   0.0000       0.729402        19.8480 
 313   0.0000       0.733279        19.9535 
 314   0.0000       0.736339        20.0368 
 315   0.0000       0.744862        20.2687 
 316   0.0000       0.746435        20.3115 
 317   0.0000       0.747938        20.3524 
 318   0.0000       0.750764        20.4293 
 319   0.0000       0.755531        20.5590 
 320   0.0000       0.757888        20.6232 
 321   0.0000       0.761650        20.7255 
 322   0.0000       0.765241        20.8233 
 323   0.0000       0.769829        20.9481 
 324   0.0000       0.770594        20.9689 
 325   0.0000       0.775391        21.0995 
 326   0.0000       0.784058        21.3353 
 327   0.0000       0.787280        21.4230 
 328   0.0000       0.791774        21.5453 
 329   0.0000       0.793511        21.5925 
 330   0.0000       0.796466        21.6729 
 331   0.0000       0.800147        21.7731 
 332   0.0000       0.800976        21.7957 
 333   0.0000       0.808516        22.0008 
 334   0.0000       0.812126        22.0991 
 335   0.0000       0.813897        22.1473 
 336   0.0000       0.818365        22.2688 
 337   0.0000       0.821818        22.3628 
 338   0.0000       0.824028        22.4229 
 339   0.0000       0.827901        22.5283 
 340   0.0000       0.830070        22.5874 
 341   0.0000       0.833892        22.6913 
 342   0.0000       0.838307        22.8115 
 343   0.0000       0.841252        22.8916 
 344   0.0000       0.841869        22.9084 
 345   0.0000       0.844627        22.9835 
 346   0.0000       0.851875        23.1807 
 347   0.0000       0.856120        23.2962 
 348   0.0000       0.858015        23.3478 
 349   0.0000       0.859763        23.3954 
 350   0.0000       0.863598        23.4997 
 351   0.0000       0.869665        23.6648 
 352   0.0000       0.874737        23.8028 
 353   0.0000       0.884189        24.0600 
 354   0.0000       0.890664        24.2362 
 355   0.0000       0.893329        24.3087 
 356   0.0000       0.895940        24.3798 
 357   0.0000       0.899614        24.4797 
 358   0.0000       0.904068        24.6009 
 359   0.0000       0.908176        24.7127 
 360   0.0000       0.918190        24.9852 
 361   0.0000       0.921367        25.0717 
 362   0.0000       0.924678        25.1618 
 363   0.0000       0.928572        25.2677 
 364   0.0000       0.933706        25.4074 
 365   0.0000       0.938620        25.5412 
 366   0.0000       0.939542        25.5662 
 367   0.0000       0.946195        25.7473 
 368   0.0000       0.948436        25.8082 
 369   0.0000       0.952641        25.9227 
 370   0.0000       0.956352        26.0237 
 371   0.0000       0.959584        26.1116 
 372   0.0000       0.959978        26.1223 
 373   0.0000       0.965022        26.2596 
 374   0.0000       0.967911        26.3382 
 375   0.0000       0.973197        26.4820 
 376   0.0000       0.979116        26.6431 
 377   0.0000       0.980317        26.6758 
 378   0.0000       0.990943        26.9649 
 379   0.0000       0.997243        27.1364 
 380   0.0000       0.999588        27.2002 
 381   0.0000       1.004011        27.3205 
 382   0.0000       1.007919        27.4269 
 383   0.0000       1.014501        27.6060 
 384   0.0000       1.017250        27.6808 
 385   0.0000       1.028361        27.9831 
 386   0.0000       1.030436        28.0396 
 387   0.0000       1.035168        28.1684 
 388   0.0000       1.039996        28.2997 
 389   0.0000       1.040945        28.3255 
 390   0.0000       1.052773        28.6474 
 391   0.0000       1.055359        28.7178 
 392   0.0000       1.068335        29.0709 
 393   0.0000       1.070903        29.1408 
 394   0.0000       1.073573        29.2134 
 395   0.0000       1.080214        29.3941 
 396   0.0000       1.084319        29.5058 
 397   0.0000       1.086760        29.5722 
 398   0.0000       1.095344        29.8058 
 399   0.0000       1.098395        29.8889 
 400   0.0000       1.102395        29.9977 
 401   0.0000       1.111819        30.2541 
 402   0.0000       1.117900        30.4196 
 403   0.0000       1.119903        30.4741 
 404   0.0000       1.131884        30.8001 
 405   0.0000       1.135781        30.9062 
 406   0.0000       1.144650        31.1475 
 407   0.0000       1.150397        31.3039 
 408   0.0000       1.156311        31.4648 
 409   0.0000       1.163028        31.6476 
 410   0.0000       1.170653        31.8551 
 411   0.0000       1.177906        32.0525 
 412   0.0000       1.179890        32.1064 
 413   0.0000       1.188822        32.3495 
 414   0.0000       1.196579        32.5606 
 415   0.0000       1.201463        32.6935 
 416   0.0000       1.204452        32.7748 
 417   0.0000       1.213971        33.0338 
 418   0.0000       1.215320        33.0705 
 419   0.0000       1.222437        33.2642 
 420   0.0000       1.223844        33.3025 
 421   0.0000       1.233014        33.5520 
 422   0.0000       1.234009        33.5791 
 423   0.0000       1.237749        33.6809 
 424   0.0000       1.244364        33.8609 
 425   0.0000       1.246727        33.9252 
 426   0.0000       1.253311        34.1043 
 427   0.0000       1.260956        34.3124 
 428   0.0000       1.271741        34.6058 
 429   0.0000       1.276090        34.7242 
 430   0.0000       1.280189        34.8357 
 431   0.0000       1.283619        34.9290 
 432   0.0000       1.286547        35.0087 
 433   0.0000       1.292463        35.1697 
 434   0.0000       1.293739        35.2044 
 435   0.0000       1.296017        35.2664 
 436   0.0000       1.304110        35.4866 
 437   0.0000       1.310550        35.6619 
 438   0.0000       1.322622        35.9904 
 439   0.0000       1.324553        36.0429 
 440   0.0000       1.327837        36.1323 
 441   0.0000       1.332538        36.2602 
 442   0.0000       1.342479        36.5307 
 443   0.0000       1.343766        36.5657 
 444   0.0000       1.347342        36.6630 
 445   0.0000       1.353321        36.8257 
 446   0.0000       1.353993        36.8440 
 447   0.0000       1.361069        37.0366 
 448   0.0000       1.363500        37.1027 
 449   0.0000       1.368783        37.2465 
 450   0.0000       1.373153        37.3654 
 451   0.0000       1.374349        37.3979 
 452   0.0000       1.387670        37.7604 
 453   0.0000       1.391566        37.8664 
 454   0.0000       1.396909        38.0118 
 455   0.0000       1.399665        38.0868 
 456   0.0000       1.410783        38.3894 
 457   0.0000       1.422684        38.7132 
 458   0.0000       1.430769        38.9332 
 459   0.0000       1.434560        39.0364 
 460   0.0000       1.435628        39.0654 
 461   0.0000       1.444344        39.3026 
 462   0.0000       1.448670        39.4203 
 463   0.0000       1.457409        39.6581 
 464   0.0000       1.460234        39.7350 
 465   0.0000       1.467543        39.9339 
 466   0.0000       1.470436        40.0126 
 467   0.0000       1.477810        40.2132 
 468   0.0000       1.478268        40.2257 
 469   0.0000       1.485793        40.4305 
 470   0.0000       1.497043        40.7366 
 471   0.0000       1.502701        40.8906 
 472   0.0000       1.505159        40.9575 
 473   0.0000       1.512860        41.1670 
 474   0.0000       1.516049        41.2538 
 475   0.0000       1.518708        41.3261 
 476   0.0000       1.522669        41.4339 
 477   0.0000       1.525686        41.5160 
 478   0.0000       1.534890        41.7665 
 479   0.0000       1.540484        41.9187 
 480   0.0000       1.547102        42.0988 
 481   0.0000       1.551667        42.2230 
 482   0.0000       1.553727        42.2791 
 483   0.0000       1.557350        42.3776 
 484   0.0000       1.561244        42.4836 
 485   0.0000       1.567010        42.6405 
 486   0.0000       1.568445        42.6796 
 487   0.0000       1.573082        42.8057 
 488   0.0000       1.575542        42.8727 
 489   0.0000       1.581372        43.0313 
 490   0.0000       1.589775        43.2600 
 491   0.0000       1.594372        43.3851 
 492   0.0000       1.596319        43.4381 
 493   0.0000       1.598793        43.5054 
 494   0.0000       1.604861        43.6705 
 495   0.0000       1.609063        43.7848 
 496   0.0000       1.612077        43.8668 
 497   0.0000       1.618745        44.0483 
 498   0.0000       1.620310        44.0909 
 499   0.0000       1.627085        44.2752 
 500   0.0000       1.632437        44.4209 
 501   0.0000       1.635984        44.5174 
 502   0.0000       1.638342        44.5816 
 503   0.0000       1.644085        44.7378 
 504   0.0000       1.645913        44.7876 
 505   0.0000       1.651608        44.9425 
 506   0.0000       1.654340        45.0169 
 507   0.0000       1.656245        45.0687 
 508   0.0000       1.663700        45.2716 
 509   0.0000       1.666740        45.3543 
 510   0.0000       1.671250        45.4770 
 511   0.0000       1.672816        45.5196 
 512   0.0000       1.675158        45.5834 
 513   0.0000       1.679137        45.6916 
 514   0.0000       1.690197        45.9926 
 515   0.0000       1.695740        46.1434 
 516   0.0000       1.696717        46.1700 
 517   0.0000       1.702132        46.3174 
 518   0.0000       1.706245        46.4293 
 519   0.0000       1.710809        46.5535 
 520   0.0000       1.713704        46.6323 
 521   0.0000       1.719756        46.7969 
 522   0.0000       1.722461        46.8705 
 523   0.0000       1.726986        46.9937 
 524   0.0000       1.731539        47.1176 
 525   0.0000       1.734762        47.2053 
 526   0.0000       1.737752        47.2866 
 527   0.0000       1.746714        47.5305 
 528   0.0000       1.751364        47.6570 
 529   0.0000       1.754189        47.7339 
 530   0.0000       1.758022        47.8382 
 531   0.0000       1.761847        47.9423 
 532   0.0000       1.771852        48.2145 
 533   0.0000       1.772407        48.2296 
 534   0.0000       1.776209        48.3331 
 535   0.0000       1.779962        48.4352 
 536   0.0000       1.786401        48.6104 
 537   0.0000       1.787275        48.6342 
 538   0.0000       1.791442        48.7476 
 539   0.0000       1.795233        48.8508 
 540   0.0000       1.800055        48.9820 
 541   0.0000       1.803380        49.0725 
 542   0.0000       1.806030        49.1446 
 543   0.0000       1.808187        49.2033 
 544   0.0000       1.816084        49.4182 
 545   0.0000       1.817634        49.4603 
 546   0.0000       1.823458        49.6188 
 547   0.0000       1.828859        49.7658 
 548   0.0000       1.833004        49.8786 
 549   0.0000       1.837751        50.0078 
 550   0.0000       1.842200        50.1288 
 551   0.0000       1.847679        50.2779 
 552   0.0000       1.851742        50.3885 
 553   0.0000       1.854240        50.4564 
 554   0.0000       1.865443        50.7613 
 555   0.0000       1.871093        50.9150 
 556   0.0000       1.875637        51.0387 
 557   0.0000       1.880797        51.1791 
 558   0.0000       1.887817        51.3701 
 559   0.0000       1.898346        51.6566 
 560   0.0000       1.908472        51.9322 
 561   0.0000       1.912045        52.0294 
 562   0.0000       1.921740        52.2932 
 563   0.0000       1.927452        52.4486 
 564   0.0000       1.931064        52.5469 
 565   0.0000       1.937435        52.7203 
 566   0.0000       1.947025        52.9813 
 567   0.0000       1.951624        53.1064 
 568   0.0000       1.955107        53.2012 
 569   0.0000       1.958762        53.3006 
 570   0.0000       1.964599        53.4595 
 571   0.0000       1.966182        53.5025 
 572   0.0000       1.975193        53.7477 
 573   0.0000       1.983989        53.9871 
 574   0.0000       1.989192        54.1287 
 575   0.0000       1.991518        54.1920 
 576   0.0000       1.995454        54.2991 
 577   0.0000       2.007007        54.6134 
 578   0.0000       2.015439        54.8429 
 579   0.0000       2.021861        55.0176 
 580   0.0000       2.027552        55.1725 
 581   0.0000       2.032009        55.2938 
 582   0.0000       2.037215        55.4354 
 583   0.0000       2.041562        55.5537 
 584   0.0000       2.050365        55.7933 
 585   0.0000       2.055104        55.9222 
 586   0.0000       2.060519        56.0696 
 587   0.0000       2.062426        56.1215 
 588   0.0000       2.069492        56.3137 
 589   0.0000       2.074041        56.4375 
 590   0.0000       2.077430        56.5298 
 591   0.0000       2.084525        56.7228 
 592   0.0000       2.092111        56.9292 
 593   0.0000       2.093677        56.9718 
 594   0.0000       2.100245        57.1506 
 595   0.0000       2.104344        57.2621 
 596   0.0000       2.113387        57.5082 
 597   0.0000       2.121347        57.7248 
 598   0.0000       2.128606        57.9223 
 599   0.0000       2.131412        57.9987 
 600   0.0000       2.133892        58.0662 
 601   0.0000       2.139582        58.2210 
 602   0.0000       2.144852        58.3644 
 603   0.0000       2.155673        58.6588 
 604   0.0000       2.162968        58.8574 
 605   0.0000       2.169549        59.0364 
 606   0.0000       2.177449        59.2514 
 607   0.0000       2.179483        59.3067 
 608   0.0000       2.185405        59.4679 
 609   0.0000       2.187062        59.5130 
 610   0.0000       2.193612        59.6912 
 611   0.0000       2.198217        59.8165 
 612   0.0000       2.203602        59.9631 
 613   0.0000       2.210328        60.1461 
 614   0.0000       2.216022        60.3010 
 615   0.0000       2.217791        60.3492 
 616   0.0000       2.227146        60.6037 
 617   0.0000       2.229344        60.6635 
 618   0.0000       2.241213        60.9865 
 619   0.0000       2.242663        61.0260 
 620   0.0000       2.251879        61.2767 
 621   0.0000       2.258055        61.4448 
 622   0.0000       2.261030        61.5257 
 623   0.0000       2.271673        61.8154 
 624   0.0000       2.278551        62.0025 
 625   0.0000       2.282189        62.1015 
 626   0.0000       2.286206        62.2108 
 627   0.0000       2.289640        62.3043 
 628   0.0000       2.294108        62.4258 
 629   0.0000       2.297562        62.5198 
 630   0.0000       2.303680        62.6863 
 631   0.0000       2.311892        62.9098 
 632   0.0000       2.315233        63.0007 
 633   0.0000       2.318189        63.0811 
 634   0.0000       2.324236        63.2457 
 635   0.0000       2.330237        63.4090 
 636   0.0000       2.333800        63.5059 
 637   0.0000       2.340024        63.6753 
 638   0.0000       2.356108        64.1130 
 639   0.0000       2.356865        64.1336 
 640   0.0000       2.359423        64.2032 
 641   0.0000       2.363101        64.3033 
 642   0.0000       2.364006        64.3279 
 643   0.0000       2.371580        64.5340 
 644   0.0000       2.373999        64.5998 
 645   0.0000       2.386232        64.9327 
 646   0.0000       2.395593        65.1874 
 647   0.0000       2.405743        65.4636 
 648   0.0000       2.423774        65.9542 
 649   0.0000       2.429345        66.1058 
 650   0.0000       2.435916        66.2847 
 651   0.0000       2.438286        66.3491 
 652   0.0000       2.445141        66.5357 
 653   0.0000       2.456011        66.8315 
 654   0.0000       2.460399        66.9509 
 655   0.0000       2.474604        67.3374 
 656   0.0000       2.479648        67.4746 
 657   0.0000       2.491070        67.7855 
 658   0.0000       2.500126        68.0319 
 659   0.0000       2.507538        68.2336 
 660   0.0000       2.518459        68.5308 
 661   0.0000       2.526933        68.7613 
 662   0.0000       2.530469        68.8576 
 663   0.0000       2.540460        69.1294 
 664   0.0000       2.551933        69.4416 
 665   0.0000       2.565301        69.8054 
 666   0.0000       2.569299        69.9142 
 667   0.0000       2.571212        69.9662 
 668   0.0000       2.582783        70.2811 
 669   0.0000       2.594954        70.6123 
 670   0.0000       2.611341        71.0582 
 671   0.0000       2.616823        71.2074 
 672   0.0000       2.628057        71.5131 
 673   0.0000       2.634100        71.6775 
 674   0.0000       2.636558        71.7444 
 675   0.0000       2.645450        71.9863 
 676   0.0000       2.652725        72.1843 
 677   0.0000       2.666502        72.5592 
 678   0.0000       2.666719        72.5651 
 679   0.0000       2.669685        72.6458 
 680   0.0000       2.680529        72.9409 
[...]
 149   8.733     142.0   0.015852   0.013402  -20.705267  -21.024626     0.03 (  69->  93)    0.03 (  69->  90)    0.02 (  55->  78)
 150   8.748     141.7   0.046753   0.041691  21.142858  19.553412     0.05 (  74-> 102)    0.03 (  64->  79)    0.03 (  74->  96)
 151   8.766     141.4   0.030780   0.029093  -5.611121  -6.696184     0.04 (  69->  80)    0.03 (  68->  80)    0.03 (  67->  80)
 152   8.771     141.4   0.035903   0.032732  39.870824  38.453695     0.05 (  64->  83)    0.03 (  71->  80)    0.03 (  74-> 104)
 153   8.782     141.2   0.043326   0.041630   1.673515   2.893884     0.07 (  68->  82)    0.03 (  74-> 102)    0.03 (  68->  80)
 154   8.783     141.2   0.017102   0.015928  -30.909388  -28.854723     0.04 (  70->  88)    0.03 (  66->  88)    0.03 (  76->  88)
 155   8.797     140.9   0.031753   0.028624  14.585632  14.047537     0.05 (  50->  78)    0.03 (  55->  79)    0.02 (  63->  82)
 156   8.802     140.9   0.008885   0.006891   0.678786   0.159687     0.05 (  74->  84)    0.05 (  50->  78)    0.04 (  74-> 104)
 157   8.812     140.7   0.038494   0.036191  23.268019  23.378971     0.21 (  74->  84)    0.07 (  74->  85)    0.03 (  76-> 111)
 158   8.824     140.5   0.029135   0.025675  -4.391422  -7.673725     0.09 (  50->  78)    0.06 (  67->  80)    0.05 (  69->  80)
 159   8.835     140.3   0.014848   0.016617  55.179806  58.800830     0.04 (  56->  78)    0.02 (  55->  78)    0.02 (  53->  78)
 160   8.839     140.3   0.031707   0.029076  -29.489330  -28.949038     0.05 (  71->  80)    0.03 (  64->  83)    0.03 (  50->  78)
 161   8.848     140.1   0.030267   0.028309  28.299061  27.188659     0.04 (  56->  78)    0.03 (  53->  78)    0.03 (  74->  84)
 162   8.863     139.9   0.000022   0.000066  -0.896237  -0.718210     0.28 (  72->  97)    0.07 (  71->  97)    0.06 (  72->  98)
 163   8.865     139.9   0.049521   0.045364  -23.670170  -21.160028     0.04 (  74->  84)    0.04 (  64->  83)    0.03 (  67->  80)
 164   8.872     139.7   0.147437   0.133340  11.401472  11.296050     0.07 (  50->  78)    0.04 (  62->  81)    0.03 (  62->  79)
 165   8.883     139.6   0.082915   0.078003  -7.505363  -6.814041     0.05 (  74->  84)    0.04 (  67->  80)    0.04 (  69->  80)
 166   8.893     139.4   0.005294   0.005606  -19.563188  -20.892674     0.03 (  75->  84)    0.03 (  72->  97)    0.02 (  50->  78)
 167   8.901     139.3   0.022845   0.021996  -31.867042  -31.588297     0.05 (  70->  80)    0.03 (  68->  80)    0.03 (  68->  84)
 168   8.911     139.1   0.004201   0.003042   7.386502   8.946290     0.06 (  74-> 104)    0.05 (  73-> 104)    0.04 (  74-> 112)
 169   8.941     138.7   0.002341   0.002156  11.888470  11.588961     0.06 (  62->  81)    0.03 (  70->  81)    0.02 (  61->  81)
 170   8.967     138.3   0.033216   0.031298  -43.849798  -42.780851     0.04 (  75->  86)    0.03 (  76->  86)    0.02 (  69->  81)
 171   8.982     138.0   0.038679   0.033784  54.588176  51.365430     0.06 (  50->  78)    0.04 (  69->  87)    0.03 (  69->  88)
 172   9.000     137.8   0.001092   0.001034  -0.128643  -0.338583     0.04 (  70->  80)    0.04 (  70->  82)    0.03 (  68->  80)
 173   9.004     137.7   0.025663   0.021709  -19.745771  -18.321945     0.04 (  70->  92)    0.04 (  71->  92)    0.02 (  69->  81)
 174   9.010     137.6   0.024598   0.022495  -0.835179  -0.864524     0.04 (  74-> 104)    0.03 (  74-> 108)    0.02 (  76->  88)
 175   9.020     137.5   0.016139   0.014556  -15.996615  -14.879115     0.04 (  75-> 113)    0.03 (  76-> 113)    0.03 (  75-> 110)
 176   9.023     137.4   0.008480   0.006834  -13.045552  -11.482811     0.05 (  49->  77)    0.04 (  73->  92)    0.03 (  48->  77)
 177   9.042     137.1   0.010834   0.009306  -33.428036  -30.350818     0.10 (  59->  81)    0.03 (  62->  81)    0.02 (  70->  93)
 178   9.059     136.9   0.022058   0.020082  32.013190  30.637313     0.06 (  63->  77)    0.04 (  48->  78)    0.04 (  47->  77)
 179   9.073     136.7   0.030604   0.025776  -34.579516  -31.193073     0.05 (  50->  78)    0.03 (  63->  77)    0.03 (  48->  78)
 180   9.090     136.4   0.025919   0.022568   1.043910   1.096501     0.16 (  64->  78)    0.13 (  66->  78)    0.06 (  65->  78)
 181   9.096     136.3   0.009062   0.008180  -0.120288  -1.166177     0.07 (  64->  78)    0.06 (  68->  80)    0.04 (  66->  78)
 182   9.116     136.0   0.008325   0.007627  -28.464922  -28.215099     0.05 (  69->  99)    0.03 (  69->  90)    0.03 (  67->  79)
 183   9.120     135.9   0.016298   0.013278  -14.799920  -12.884947     0.03 (  64->  78)    0.03 (  74-> 111)    0.03 (  66->  78)
 184   9.154     135.4   0.012771   0.011194  14.443218  13.308033     0.06 (  74-> 111)    0.04 (  74-> 112)    0.03 (  71->  89)
 185   9.177     135.1   0.004374   0.004046   0.850158   0.723713     0.09 (  59->  81)    0.04 (  62->  79)    0.03 (  59->  79)
 186   9.183     135.0   0.007446   0.007540   5.166701   5.458262     0.03 (  75->  99)    0.02 (  59->  81)    0.02 (  74->  95)
 187   9.192     134.9   0.002851   0.002257   9.477075   8.290053     0.03 (  73->  93)    0.03 (  68->  84)    0.03 (  70->  80)
 188   9.210     134.6   0.002168   0.002289   2.551583   2.588704     0.03 (  73->  84)    0.03 (  69->  84)    0.03 (  74->  95)
 189   9.213     134.6   0.015836   0.014019  -24.018368  -22.270815     0.05 (  73->  84)    0.03 (  67->  84)    0.03 (  64->  84)
 190   9.237     134.2   0.005898   0.005108   4.234155   4.705734     0.04 (  73->  84)    0.03 (  48->  78)    0.02 (  74-> 107)
 191   9.247     134.1   0.026288   0.024425  -18.145042  -18.055323     0.05 (  69->  84)    0.03 (  67->  84)    0.02 (  75->  90)
 192   9.255     134.0   0.025118   0.021486  -1.232055  -1.498090     0.09 (  72-> 100)    0.04 (  72-> 106)    0.04 (  75->  87)
 193   9.261     133.9   0.004949   0.004622   1.857037   2.340358     0.04 (  72-> 100)    0.02 (  73->  86)    0.02 (  76-> 107)
 194   9.269     133.8   0.005329   0.005059  -13.169835  -13.061266     0.04 (  72-> 100)    0.02 (  71-> 100)    0.02 (  65->  90)
 195   9.274     133.7   0.003668   0.003072  -0.452337  -0.244658     0.06 (  69->  90)    0.04 (  56->  80)    0.04 (  54->  80)
 196   9.297     133.4   0.004431   0.003596   0.197184  -1.260313     0.03 (  71->  91)    0.03 (  76->  89)    0.02 (  74-> 108)
 197   9.299     133.3   0.008413   0.007099   4.351377   4.747229     0.04 (  57->  81)    0.03 (  62->  83)    0.03 (  59->  85)
 198   9.305     133.2   0.004995   0.003974  -3.211888  -2.851991     0.07 (  56->  80)    0.07 (  54->  80)    0.03 (  51->  80)
 199   9.308     133.2   0.033917   0.028684   6.580825   6.716312     0.03 (  65->  90)    0.02 (  54->  81)    0.02 (  75->  99)
 200   9.333     132.8   0.008302   0.006828   7.580369   7.818071     0.04 (  57->  81)    0.03 (  53->  81)    0.02 (  47->  77)
 201   9.337     132.8   0.001786   0.001561   5.901844   5.666119     0.03 (  69->  95)    0.03 (  63->  82)    0.02 (  74-> 112)
 202   9.343     132.7   0.002543   0.002185  -2.397375  -1.849285     0.09 (  72->  81)    0.03 (  74-> 111)    0.03 (  74-> 108)
 203   9.347     132.6   0.012225   0.012008  -10.193655  -13.315945     0.03 (  51->  80)    0.03 (  56->  80)    0.03 (  65->  79)
 204   9.355     132.5   0.028861   0.028354  -14.581790  -13.759539     0.03 (  69->  85)    0.03 (  69->  95)    0.03 (  67->  84)
 205   9.359     132.5   0.002844   0.002409  -7.597814  -6.189485     0.06 (  72->  81)    0.03 (  63->  77)    0.03 (  74-> 108)
 206   9.370     132.3   0.002738   0.002285  -3.844428  -4.174411     0.22 (  72->  81)    0.04 (  71->  81)    0.02 (  72->  82)
 207   9.386     132.1   0.017748   0.015282   8.018541   8.768297     0.08 (  65->  79)    0.03 (  64->  79)    0.02 (  65->  77)
 208   9.395     132.0   0.028079   0.027901  -9.718658  -11.006322     0.06 (  63->  82)    0.03 (  65->  90)    0.02 (  61->  90)
 209   9.404     131.8   0.010135   0.008505   3.485032   3.009227     0.04 (  74-> 111)    0.04 (  63->  77)    0.04 (  76-> 111)
 210   9.411     131.7   0.005620   0.004372  -4.482388  -3.556106     0.03 (  72-> 106)    0.03 (  72->  83)    0.02 (  71->  81)
 211   9.415     131.7   0.006138   0.006519  10.249158  10.928452     0.06 (  65->  79)    0.03 (  63->  82)    0.02 (  64->  79)
 212   9.426     131.5   0.005752   0.004418  -9.753396  -7.865957     0.06 (  72-> 101)    0.05 (  72-> 106)    0.03 (  63->  77)
 213   9.439     131.4   0.014336   0.012305   8.011289   7.451462     0.04 (  69->  95)    0.03 (  75->  88)    0.03 (  76->  91)
 214   9.443     131.3   0.007827   0.008116  23.521846  23.709401     0.06 (  72->  83)    0.03 (  72-> 106)    0.02 (  71->  81)
 215   9.463     131.0   0.003774   0.003084  -4.838616  -3.763930     0.03 (  73->  98)    0.03 (  65->  79)    0.02 (  66->  88)
 216   9.470     130.9   0.007953   0.006533  18.699759  19.517948     0.04 (  72-> 101)    0.03 (  51->  80)    0.03 (  63->  77)
 217   9.480     130.8   0.005797   0.005373   2.374496   2.819205     0.07 (  68->  85)    0.03 (  51->  80)    0.03 (  67->  81)
 218   9.489     130.7   0.026152   0.023220  31.456198  30.188174     0.04 (  72->  83)    0.03 (  51->  80)    0.03 (  65->  79)
 219   9.494     130.6   0.039512   0.033817  -14.980848  -13.125301     0.06 (  64->  83)    0.04 (  65->  79)    0.03 (  72->  83)
 220   9.501     130.5   0.013609   0.011882  17.571982  15.288162     0.06 (  67->  81)    0.04 (  68->  81)    0.03 (  69->  99)
 221   9.517     130.3   0.000684   0.000665   2.832929   2.843408     0.03 (  69->  99)    0.02 (  75->  95)    0.02 (  76->  94)
 222   9.523     130.2   0.008667   0.007616  -4.574147  -3.921443     0.03 (  70->  85)    0.02 (  71->  84)    0.02 (  68->  87)
 223   9.550     129.8   0.010089   0.007232   6.162622   5.241257     0.04 (  75->  99)    0.03 (  49->  77)    0.03 (  76->  93)
 224   9.559     129.7   0.011996   0.009776  -18.751831  -16.419347     0.09 (  72->  83)    0.05 (  71->  83)    0.03 (  61->  77)
 225   9.565     129.6   0.020562   0.017340   9.984944  11.101505     0.07 (  49->  77)    0.04 (  51->  80)    0.04 (  62->  77)
 226   9.571     129.5   0.016293   0.016082  22.032747  23.214184     0.11 (  51->  80)    0.05 (  49->  78)    0.02 (  68->  85)
 227   9.580     129.4   0.014051   0.012341  -16.740251  -18.012771     0.03 (  72-> 101)    0.03 (  76-> 113)    0.03 (  75-> 113)
 228   9.588     129.3   0.001595   0.001470   8.105835   8.762515     0.05 (  72-> 101)    0.03 (  75->  99)    0.03 (  72->  83)
 229   9.595     129.2   0.011576   0.009678   6.343457   5.738658     0.04 (  76->  94)    0.03 (  71->  96)    0.03 (  70->  94)
 230   9.597     129.2   0.033155   0.025916  57.927234  51.385211     0.05 (  51->  80)    0.04 (  72-> 101)    0.02 (  49->  78)
 231   9.611     129.0   0.002977   0.003041  -0.721576  -1.107910     0.03 (  51->  80)    0.03 (  66->  80)    0.03 (  66->  81)
 232   9.616     128.9   0.035774   0.029473  10.959902  10.129098     0.02 (  73-> 103)    0.02 (  51->  80)    0.02 (  76-> 119)
 233   9.632     128.7   0.002880   0.002465  12.028519  11.410951     0.05 (  72-> 106)    0.04 (  72-> 105)    0.02 (  73-> 103)
 234   9.638     128.6   0.010273   0.009073  -18.827925  -17.822770     0.12 (  67->  99)    0.09 (  69->  99)    0.04 (  74->  87)
 235   9.647     128.5   0.039097   0.031693  -23.069200  -20.412665     0.06 (  75->  90)    0.04 (  73->  90)    0.03 (  74->  90)
 236   9.653     128.4   0.030395   0.028159  -40.444316  -39.265099     0.02 (  73-> 103)    0.02 (  76-> 103)    0.02 (  68->  85)
 237   9.662     128.3   0.035212   0.031031  21.701660  17.430039     0.04 (  74->  90)    0.04 (  72-> 105)    0.03 (  72-> 109)
 238   9.676     128.1   0.002584   0.002438  -5.729372  -5.054950     0.02 (  60->  79)    0.02 (  72-> 105)    0.02 (  60->  77)
 239   9.683     128.0   0.040726   0.034378  -51.483925  -49.385697     0.05 (  67->  95)    0.03 (  51->  80)    0.02 (  73->  88)
 240   9.684     128.0   0.017321   0.014736  -0.119153  -0.951340     0.04 (  68->  84)    0.04 (  70->  96)    0.03 (  75->  88)
 241   9.689     128.0   0.015402   0.012920  -20.114016  -17.980640     0.06 (  58->  77)    0.03 (  74->  87)    0.02 (  66->  80)
 242   9.708     127.7   0.018736   0.015038  30.548028  27.321691     0.03 (  50->  80)    0.03 (  69->  86)    0.02 (  68->  95)
 243   9.710     127.7   0.010525   0.009607  -1.329475  -0.693451     0.05 (  74->  88)    0.03 (  74->  87)    0.03 (  73->  87)
 244   9.716     127.6   0.007666   0.006500   5.043188   4.901595     0.04 (  74->  87)    0.03 (  74->  88)    0.02 (  61->  77)
 245   9.728     127.5   0.013382   0.011684  -24.619750  -23.217701     0.03 (  75->  88)    0.03 (  59->  77)    0.03 (  66->  82)
 246   9.731     127.4   0.015903   0.013986  22.134369  20.021353     0.04 (  75->  88)    0.03 (  66->  80)    0.02 (  74->  90)
 247   9.755     127.1   0.005475   0.004254   2.567708   1.798304     0.09 (  75->  88)    0.04 (  68->  95)    0.04 (  68->  98)
 248   9.774     126.9   0.085274   0.070007  -25.646294  -22.695331     0.03 (  75->  88)    0.03 (  69->  86)    0.02 (  61->  82)
 249   9.788     126.7   0.049218   0.041736  10.612181   9.191085     0.08 (  74->  90)    0.07 (  73->  90)    0.03 (  76->  92)
 250   9.794     126.6   0.017435   0.014501  -37.434622  -34.035714     0.13 (  74->  90)    0.04 (  66->  80)    0.03 (  73->  90)
 251   9.799     126.5   0.061409   0.050117  32.958964  29.065440     0.14 (  50->  80)    0.04 (  74->  90)    0.04 (  75-> 114)
 252   9.807     126.4   0.027173   0.021732  -8.808210  -12.106971     0.12 (  50->  80)    0.03 (  66->  80)    0.02 (  74->  90)
 253   9.810     126.4   0.008042   0.007403  -1.806098  -0.375221     0.08 (  74->  90)    0.04 (  76->  92)    0.02 (  71->  97)
 254   9.814     126.3   0.017262   0.015160  -3.937862  -4.749425     0.15 (  50->  80)    0.05 (  69->  86)    0.04 (  69->  96)
 255   9.833     126.1   0.067792   0.057213  34.902507  29.415761     0.07 (  74->  90)    0.03 (  74->  89)    0.03 (  50->  80)
 256   9.837     126.0   0.000790   0.000557  -2.977906  -2.580269     0.03 (  50->  80)    0.03 (  76->  92)    0.03 (  73->  97)
 257   9.847     125.9   0.054562   0.045586  17.173516  12.784268     0.07 (  72-> 106)    0.06 (  72-> 109)    0.04 (  50->  80)
 258   9.856     125.8   0.003703   0.002826  -6.424695  -6.444851     0.12 (  72-> 106)    0.10 (  72-> 109)    0.04 (  72-> 108)
 259   9.867     125.7   0.004808   0.003642  27.033087  23.019305     0.03 (  48->  78)    0.02 (  46->  78)    0.02 (  66->  81)
 260   9.883     125.5   0.027095   0.021770  -32.195355  -27.667648     0.03 (  66->  95)    0.02 (  69->  86)    0.02 (  46->  78)
 261   9.895     125.3   0.141188   0.118016  -113.570380  -102.349554     0.07 (  57->  83)    0.06 (  76->  91)    0.02 (  76->  93)
 262   9.906     125.2   0.023278   0.019787  -11.903319  -11.498819     0.03 (  76->  91)    0.02 (  70->  86)    0.02 (  71->  99)
 263   9.910     125.1   0.007733   0.006152  -7.456925  -6.228166     0.02 (  67->  99)    0.02 (  75->  96)    0.02 (  73->  95)
 264   9.923     124.9   0.006732   0.006661  -1.284030   0.063447     0.05 (  73-> 114)    0.03 (  76-> 115)    0.03 (  74-> 111)
 265   9.933     124.8   0.027007   0.020960  -42.546546  -39.367069     0.05 (  41->  78)    0.05 (  39->  77)    0.02 (  47->  79)
 266   9.956     124.5   0.006872   0.006109  -3.661432  -4.048426     0.02 (  75->  98)    0.02 (  46->  78)    0.02 (  69->  86)
 267   9.971     124.3   0.002822   0.002196  -11.907558  -10.435746     0.10 (  41->  78)    0.05 (  44->  78)    0.05 (  43->  78)
 268   9.977     124.3   0.007692   0.006235  -9.506127  -7.689156     0.04 (  50->  80)    0.03 (  58->  82)    0.03 (  70->  99)
 269   9.985     124.2   0.006334   0.005123  21.430981  17.727282     0.09 (  74-> 114)    0.04 (  76->  93)    0.03 (  75->  93)
 270   9.999     124.0   0.016652   0.013706  19.530090  17.651532     0.04 (  58->  82)    0.03 (  57->  78)    0.02 (  50->  80)

sTD-DFT done

Total run time:       49.954 sec

           *** ORCA-CIS/TD-DFT FINISHED WITHOUT ERROR ***


-------------------------------------------------------------------------------
                          DFT DISPERSION CORRECTION                            
                                                                               
                              DFTD3 V3.1  Rev 1                                
                              USING zero damping                               
-------------------------------------------------------------------------------
The omegaB97X-D3 functional is recognized. Fit by Chai et al.
Active option DFTDOPT                   ...         3   

molecular C6(AA) [au] = 42914.066987 


            DFT-D V3
 parameters
 s6 scaling factor         :     1.0000 
 rs6 scaling factor        :     1.2810 
 s8 scaling factor         :     1.0000 
 rs8 scaling factor        :     1.0940 
 Damping factor alpha6     :    14.0000 
 Damping factor alpha8     :    16.0000 
 ad hoc parameters k1-k3   :    16.0000     1.3333    -4.0000 

 Edisp/kcal,au: -15.452735746064  -0.024625499274 
 E6   /kcal   :  -7.276823570 
 E8   /kcal   :  -8.175912176 
 % E8         :  52.909156735 

-------------------------   ----------------
Dispersion correction           -0.024625499
-------------------------   ----------------


-------------------------   --------------------
FINAL SINGLE POINT ENERGY     -2113.197900896401
-------------------------   --------------------


                            ***************************************
                            *     ORCA property calculations      *
                            ***************************************

                                    ---------------------
                                    Active property flags
                                    ---------------------
   (+) Dipole Moment
   (+) Quadrupole Moment


------------------------------------------------------------------------------
                       ORCA ELECTRIC PROPERTIES CALCULATION
------------------------------------------------------------------------------

Dipole Moment Calculation                       ... on
Quadrupole Moment Calculation                   ... on
Polarizability Calculation                      ... off
GBWName                                         ... total_job2.gbw
Electron density file                           ... total_job2.scfp.tmp

-------------
DIPOLE MOMENT
-------------
                                X             Y             Z
Electronic contribution:     -1.30361       2.60532      -6.23751
Nuclear contribution   :      2.13584      -2.01449       6.15383
                        -----------------------------------------
Total Dipole Moment    :      0.83223       0.59083      -0.08368
                        -----------------------------------------
Magnitude (a.u.)       :      1.02405
Magnitude (Debye)      :      2.60294


------------------------
QUADRUPOLE MOMENT (A.U.)
------------------------

                XX           YY           ZZ           XY           XZ           YZ
  NUC     20802.27407   1510.56040   2250.47255   1210.75483   1141.74886   1332.02326
  EL     -20915.01199  -1658.53776  -2397.77642  -1204.79737  -1141.16102  -1319.30774
  TOT      -112.73792   -147.97736   -147.30387      5.95746      0.58784     12.71551


Timings for individual modules:

Sum of individual times         ...      233.735 sec (=   3.896 min)
GTO integral calculation        ...        7.001 sec (=   0.117 min)   3.0 %
SCF iterations                  ...      171.612 sec (=   2.860 min)  73.4 %
CIS module                      ...       55.122 sec (=   0.919 min)  23.6 %



                             ****ORCA TERMINATED NORMALLY****
TOTAL RUN TIME: 0 days 0 hours 14 minutes 5 seconds 506 msec
