   68
Geometry Step: 2480
    C      8.79918448      1.84458065      0.22833327      4.11612029
    C      7.58195060      1.19214980      0.04471876      4.08893441
    C      7.32448374      0.00811747      0.76003589      4.03154762
    C      8.30482650     -0.45339940      1.68360351      3.86602261
    C      9.53525017      0.19657475      1.86358827      4.16429337
    C      9.77030744      1.34788002      1.11531283      4.07174381
    C      6.19601309     -0.90236546      0.86508350      4.06232447
    C      6.53774033     -1.83927239      1.88192988      3.86362984
    N      7.81678620     -1.57115002      2.33743148      5.17689458
    C      5.65577558     -2.83553649      2.32815146      4.17348715
    C      4.39007356     -2.87483806      1.74495887      4.07070234
    C      4.03361806     -1.98061766      0.72727651      4.13873861
    C      4.92271597     -1.00114194      0.24293761      3.97867470
    H      3.05017911     -2.05973617      0.27256530      0.91260681
    H      8.29419436     -2.07728005      3.07310173      0.78533069
    H      3.67112457     -3.62101810      2.07213610      0.92009785
    H      6.84072854      1.61553034     -0.62576568      0.91264379
    H     10.27171761     -0.17818745      2.56944681      0.91871106
    H     10.71125865      1.87937041      1.22981651      0.92243491
    H      9.00274775      2.75938274     -0.32150425      0.92093572
    O      0.61913062      0.68701953     -1.77771039      6.17752598
    C      1.63357083      1.04526109     -2.59667556      3.81380171
    C      1.12080813      1.72249609     -3.69527384      4.21703924
    C     -0.28392069      1.76624668     -3.51261501      4.21919728
    C     -0.54545639      1.11419021     -2.31486345      3.78534070
    C      2.98158152      0.68938508     -2.22390335      3.81356437
    C      4.20525011      0.90359345     -2.84392522      4.22210232
    C      5.18459366      0.33261124     -1.99246915      4.21539625
    C      4.50418374     -0.19214259     -0.90286818      3.78691855
    O      3.17828476      0.01850826     -1.06782602      6.17439504
    H      6.24510343      0.26999939     -2.18518151      0.88630217
    H      4.37244186      1.40249240     -3.78754233      0.89046500
    H     -1.00781388      2.21862028     -4.17493319      0.89225373
    H      1.68483880      2.13189611     -4.52086937      0.89094814
    C     -4.21169921      0.98589947     -1.43829171      4.15213913
    C     -4.18979875      0.30016592     -0.20508791      3.84454935
    C     -2.94616383     -0.11169510      0.31950061      4.15303695
    C     -1.76887176      0.15100568     -0.36907362      4.08858580
    C     -1.78351980      0.83917218     -1.60069826      4.00429806
    C     -3.02948671      1.25148296     -2.11764635      4.09509225
    N     -5.39422565      0.03011671      0.49312571      5.09482636
    C     -6.47509102      0.94933940      0.42821700      3.83611894
    C     -7.80705342      0.48869484      0.44502815      4.15644833
    C     -8.86212733      1.39618473      0.38542207      4.06305844
    C     -8.61492271      2.76857153      0.29960351      4.11010891
    C     -7.29646068      3.23024786      0.27863912      4.06302112
    C     -6.23133270      2.33517283      0.34651583      4.15641356
    C     -5.52092742     -1.15990309      1.25823767      3.83611552
    C     -4.89613367     -2.35095775      0.83679279      4.15626502
    C     -5.02116077     -3.51286498      1.59480920      4.06293667
    C     -5.77190022     -3.51514276      2.77307133      4.11007820
    C     -6.39734543     -2.33844731      3.19272990      4.06304143
    C     -6.27381316     -1.16670741      2.44973439      4.15631321
    H     -4.32176305     -2.36143244     -0.08522927      0.90885482
    H     -4.53728041     -4.42585696      1.25753329      0.92101929
    H     -6.97778717     -2.33009941      4.11169776      0.92121401
    H     -6.75268462     -0.25293809      2.79004506      0.90883034
    H     -8.00806844     -0.57752329      0.49871452      0.90885169
    H     -9.88491278      1.02837312      0.39575170      0.92118907
    H     -9.44149538      3.47129208      0.24988543      0.91873018
    H     -7.09553912      4.29682101      0.21946273      0.92099779
    H     -5.20935986      2.70354396      0.34364044      0.90880302
    H     -2.91021335     -0.63110894      1.27293083      0.90717810
    H     -0.81833884     -0.16720102      0.05009201      0.90990477
    H     -3.06722888      1.77610698     -3.06904994      0.91852834
    H     -5.16082561      1.30109292     -1.86222294      0.90736661
    H      5.94295743     -3.53574539      3.10738326      0.91614924
    H     -5.86869848     -4.42488049      3.35833388      0.91881036
