
                                 *****************
                                 * O   R   C   A *
                                 *****************

           --- An Ab Initio, DFT and Semiempirical electronic structure package ---

                  #######################################################
                  #                        -***-                        #
                  #  Department of molecular theory and spectroscopy    #
                  #              Directorship: Frank Neese              #
                  # Max Planck Institute for Chemical Energy Conversion #
                  #                  D-45470 Muelheim/Ruhr              #
                  #                       Germany                       #
                  #                                                     #
                  #                  All rights reserved                #
                  #                        -***-                        #
                  #######################################################


                         Program Version 4.0.0 -  RELEASE  -


 With contributions from (in alphabetic order):
   Daniel Aravena         : Magnetic Properties
   Michael Atanasov       : Ab Initio Ligand Field Theory
   Ute Becker             : Parallelization
   Martin Brehm           : Molecular dynamics
   Dmytro Bykov           : SCF Hessian
   Vijay G. Chilkuri      : MRCI spin determinant printing
   Dipayan Datta          : RHF DLPNO-CCSD density
   Achintya Kumar Dutta   : EOM-CC, STEOM-CC
   Dmitry Ganyushin       : Spin-Orbit,Spin-Spin,Magnetic field MRCI
   Yang Guo               : DLPNO-NEVPT2, CIM, IAO-localization
   Andreas Hansen         : Spin unrestricted coupled pair/coupled cluster methods
   Lee Huntington         : MR-EOM, pCC
   Robert Izsak           : Overlap fitted RIJCOSX, COSX-SCS-MP3, EOM
   Christian Kollmar      : KDIIS, OOCD, Brueckner-CCSD(T), CCSD density
   Simone Kossmann        : Meta GGA functionals, TD-DFT gradient, OOMP2, MP2 Hessian
   Martin Krupicka        : AUTO-CI
   Dagmar Lenk            : GEPOL surface
   Dimitrios Liakos       : Extrapolation schemes; parallel MDCI
   Dimitrios Manganas     : ROCIS; embedding schemes
   Dimitrios Pantazis     : SARC Basis sets
   Taras Petrenko         : DFT Hessian,TD-DFT gradient, ASA, ECA, R-Raman, ABS, FL, XAS/XES, NRVS
   Peter Pinski           : DLPNO-MP2
   Christoph Reimann      : Effective Core Potentials
   Marius Retegan         : Local ZFS, SOC
   Christoph Riplinger    : Optimizer, TS searches, QM/MM, DLPNO-CCSD(T), (RO)-DLPNO pert. Triples
   Tobias Risthaus        : Range-separated hybrids, TD-DFT gradient, RPA, STAB
   Michael Roemelt        : Restricted open shell CIS
   Masaaki Saitow         : Open-shell DLPNO
   Barbara Sandhoefer     : DKH picture change effects
   Kantharuban Sivalingam : CASSCF convergence, NEVPT2, FIC-MRCI
   Georgi Stoychev        : AutoAux
   Boris Wezisla          : Elementary symmetry handling
   Frank Wennmohs         : Technical directorship


 We gratefully acknowledge several colleagues who have allowed us to
 interface, adapt or use parts of their codes:
   Stefan Grimme, W. Hujo, H. Kruse,             : VdW corrections, initial TS optimization,
                  C. Bannwarth                     DFT functionals, gCP, sTDA/sTD-DF
   Ed Valeev                                     : LibInt (2-el integral package), F12 methods
   Garnet Chan, S. Sharma, J. Yang, R. Olivares  : DMRG
   Ulf Ekstrom                                   : XCFun DFT Library
   Mihaly Kallay                                 : mrcc  (arbitrary order and MRCC methods)
   Jiri Pittner, Ondrej Demel                    : Mk-CCSD
   Frank Weinhold                                : gennbo (NPA and NBO analysis)
   Christopher J. Cramer and Donald G. Truhlar   : smd solvation model


 Your calculation uses the libint2 library for the computation of 2-el integrals
 For citations please refer to: http://libint.valeyev.net

 This ORCA versions uses:
   CBLAS   interface :  Fast vector & matrix operations
   LAPACKE interface :  Fast linear algebra routines
   SCALAPACK package :  Parallel linear algebra routines


Your calculation utilizes the atom-pairwise dispersion correction
with the zero-damping scheme (D30)
Cite in your paper:
S.Grimme, J.Antony, S.Ehrlich and H.Krieg, J.Chem.Phys., 132, (2010), 154104 
   

XCFun DFT library Copyright 2009-2010 Ulf Ekstrom and contributors.
See http://admol.org/xcfun for more information. This is free soft-
ware; see the source code for copying conditions. There is ABSOLUTELY
NO WARRANTY; not even for MERCHANTABILITY or FITNESS FOR A PARTICULAR
PURPOSE. For details see the documentation. Scientific users of this 
library should cite U. Ekstrom, L. Visscher, R. Bast, A. J. Thorvald-
sen and K. Ruud; J.Chem.Theor.Comp. 2010, DOI: 10.1021/ct100117s
XCFun Version 0.99 
Your calculation utilizes the basis: def2-TZVP
   F. Weigend and R. Ahlrichs, Phys. Chem. Chem. Phys. 7, 3297 (2005).

Your calculation utilizes the auxiliary basis: def2/J
   F. Weigend, Phys. Chem. Chem. Phys. 8, 1057 (2006).

================================================================================
                                        WARNINGS
                       Please study these warnings very carefully!
================================================================================

Warning: TCutStore was < 0. Adjusted to Thresh (uncritical)
INFO   : Checking CIS options ...

WARNING: CIS/ROCIS methods need fully converged wavefunctions
  ===> : Setting SCFConvForced true
         You can overwrite this default with %scf ConvForced false 


INFO   : the flag for use of LIBINT has been found!

Your calculation utilizes the atom-pairwise dispersion correction
with the zero-damping scheme (D30)
Cite in your paper:
S.Grimme, J.Antony, S.Ehrlich and H.Krieg, J.Chem.Phys., 132, (2010), 154104 
   

XCFun DFT library Copyright 2009-2010 Ulf Ekstrom and contributors.
See http://admol.org/xcfun for more information. This is free soft-
ware; see the source code for copying conditions. There is ABSOLUTELY
NO WARRANTY; not even for MERCHANTABILITY or FITNESS FOR A PARTICULAR
PURPOSE. For details see the documentation. Scientific users of this 
library should cite U. Ekstrom, L. Visscher, R. Bast, A. J. Thorvald-
sen and K. Ruud; J.Chem.Theor.Comp. 2010, DOI: 10.1021/ct100117s
XCFun Version 0.99 
Your calculation utilizes the basis: def2-TZVP
   F. Weigend and R. Ahlrichs, Phys. Chem. Chem. Phys. 7, 3297 (2005).

Your calculation utilizes the auxiliary basis: def2/J
   F. Weigend, Phys. Chem. Chem. Phys. 8, 1057 (2006).

================================================================================
                                        WARNINGS
                       Please study these warnings very carefully!
================================================================================

INFO   : Checking CIS options ...

INFO   : the flag for use of LIBINT has been found!

================================================================================
                                       INPUT FILE
================================================================================
NAME = total.inp
|  1> # 
|  2> !wB97X-D3 def2-TZVP def2/J RIJCOSX Grid5 FinalGrid6 TightSCF
|  3> %pal 
|  4>  nprocs 24
|  5> end
|  6> %tddft
|  7>   Mode sTDDFT
|  8>   nroots 2
|  9>   Ethresh 10.0
| 10>   maxcore 5000
| 11>   triplets true
| 12> end
| 13> * xyz 0 1 
| 14> C -5.59848845 -2.23146185 -0.92285317
| 15> C -4.61338639 -1.31115189 -0.57373348
| 16> C -4.98313855 -0.13691680 0.10961664
| 17> C -6.35555864 0.05052116 0.43726763
| 18> C -7.35086509 -0.87247752 0.08156584
| 19> C -6.95116158 -2.01492368 -0.60685763
| 20> C -4.26891520 1.00980986 0.65060198
| 21> C -5.25107998 1.81497727 1.29978178
| 22> N -6.49478620 1.23268026 1.14315503
| 23> C -4.93884173 2.99372487 1.99342948
| 24> C -3.59831535 3.36845858 2.04840932
| 25> C -2.61096325 2.60286657 1.41456851
| 26> C -2.91304238 1.43253996 0.69318747
| 27> H -1.57761239 2.93620780 1.45797160
| 28> H -7.36264236 1.59552918 1.51805037
| 29> H -3.31152040 4.27011074 2.58194655
| 30> H -3.57747536 -1.51133697 -0.82683328
| 31> H -8.39264068 -0.70328133 0.34039460
| 32> H -7.69351574 -2.75309709 -0.89833815
| 33> H -5.31731551 -3.13811150 -1.45130449
| 34> C 3.67217828 -0.81791289 -0.94622708
| 35> N 3.15195051 -1.45900208 -2.00453966
| 36> O 1.81236516 -1.22663942 -1.99034900
| 37> C 1.49251191 -0.45265323 -0.94188507
| 38> C 2.63590182 -0.15217570 -0.22816242
| 39> C 0.09734547 -0.08495207 -0.74297041
| 40> N -0.87564705 -0.48960840 -1.57270621
| 41> O -2.03613377 0.02852641 -1.09020432
| 42> C -1.80639271 0.74236476 0.02210675
| 43> C -0.45085182 0.72012209 0.29680468
| 44> H 0.06815858 1.18384237 1.12295422
| 45> H 2.71701610 0.44820709 0.66488538
| 46> C 7.34620263 -1.67922814 -1.31055254
| 47> C 7.91104493 -1.01580749 -0.20896462
| 48> C 7.08757048 -0.28507866 0.65470070
| 49> C 5.70340574 -0.20536637 0.43584924
| 50> C 5.11664631 -0.86649309 -0.66765410
| 51> C 5.96785229 -1.59628309 -1.52328592
| 52> O 4.97251584 0.52665422 1.32374828
| 53> O 7.62960897 0.37578587 1.74703703
| 54> O 9.26087134 -1.05353626 0.06265812
| 55> H 5.53073232 -2.10855466 -2.37413982
| 56> H 5.59302825 0.87650988 1.98313864
| 57> H 8.58516636 0.20862147 1.73513885
| 58> H 9.71397614 -1.58712260 -0.60391541
| 59> H -5.71224761 3.58417261 2.47643758
| 60> H 7.97658874 -2.24906024 -1.98692948
| 61> *
| 62> $new_job
| 63> # 
| 64> !wB97X-D3 def2-TZVP def2/J RIJCOSX Grid5 FinalGrid6 TightSCF
| 65> %pal 
| 66>  nprocs 24
| 67> end
| 68> %elprop
| 69>    dipole     true
| 70>    quadrupole true
| 71> end
| 72> %tddft
| 73>   Mode sTDDFT
| 74>   nroots 2
| 75>   Ethresh 10.0
| 76>   maxcore 5000
| 77> end
| 78> * xyz 0 1 
| 79> C -5.59848845 -2.23146185 -0.92285317
| 80> C -4.61338639 -1.31115189 -0.57373348
| 81> C -4.98313855 -0.13691680 0.10961664
| 82> C -6.35555864 0.05052116 0.43726763
| 83> C -7.35086509 -0.87247752 0.08156584
| 84> C -6.95116158 -2.01492368 -0.60685763
| 85> C -4.26891520 1.00980986 0.65060198
| 86> C -5.25107998 1.81497727 1.29978178
| 87> N -6.49478620 1.23268026 1.14315503
| 88> C -4.93884173 2.99372487 1.99342948
| 89> C -3.59831535 3.36845858 2.04840932
| 90> C -2.61096325 2.60286657 1.41456851
| 91> C -2.91304238 1.43253996 0.69318747
| 92> H -1.57761239 2.93620780 1.45797160
| 93> H -7.36264236 1.59552918 1.51805037
| 94> H -3.31152040 4.27011074 2.58194655
| 95> H -3.57747536 -1.51133697 -0.82683328
| 96> H -8.39264068 -0.70328133 0.34039460
| 97> H -7.69351574 -2.75309709 -0.89833815
| 98> H -5.31731551 -3.13811150 -1.45130449
| 99> C 3.67217828 -0.81791289 -0.94622708
|100> N 3.15195051 -1.45900208 -2.00453966
|101> O 1.81236516 -1.22663942 -1.99034900
|102> C 1.49251191 -0.45265323 -0.94188507
|103> C 2.63590182 -0.15217570 -0.22816242
|104> C 0.09734547 -0.08495207 -0.74297041
|105> N -0.87564705 -0.48960840 -1.57270621
|106> O -2.03613377 0.02852641 -1.09020432
|107> C -1.80639271 0.74236476 0.02210675
|108> C -0.45085182 0.72012209 0.29680468
|109> H 0.06815858 1.18384237 1.12295422
|110> H 2.71701610 0.44820709 0.66488538
|111> C 7.34620263 -1.67922814 -1.31055254
|112> C 7.91104493 -1.01580749 -0.20896462
|113> C 7.08757048 -0.28507866 0.65470070
|114> C 5.70340574 -0.20536637 0.43584924
|115> C 5.11664631 -0.86649309 -0.66765410
|116> C 5.96785229 -1.59628309 -1.52328592
|117> O 4.97251584 0.52665422 1.32374828
|118> O 7.62960897 0.37578587 1.74703703
|119> O 9.26087134 -1.05353626 0.06265812
|120> H 5.53073232 -2.10855466 -2.37413982
|121> H 5.59302825 0.87650988 1.98313864
|122> H 8.58516636 0.20862147 1.73513885
|123> H 9.71397614 -1.58712260 -0.60391541
|124> H -5.71224761 3.58417261 2.47643758
|125> H 7.97658874 -2.24906024 -1.98692948
|126> *
|127> 
|128>                          ****END OF INPUT****
================================================================================


                 $$$$$$$$$$$$$$$$$$$$$$$$$$$$$$$$$$$$$$$$$$$$$$ 
                 $ THERE ARE  2 JOBS TO BE PROCESSED THIS RUN $
                 $$$$$$$$$$$$$$$$$$$$$$$$$$$$$$$$$$$$$$$$$$$$$$ 




                 $$$$$$$$$$$$$$$$  JOB NUMBER  1 $$$$$$$$$$$$$$


                       ****************************
                       * Single Point Calculation *
                       ****************************

---------------------------------
CARTESIAN COORDINATES (ANGSTROEM)
---------------------------------
  C     -5.598488   -2.231462   -0.922853
  C     -4.613386   -1.311152   -0.573733
  C     -4.983139   -0.136917    0.109617
  C     -6.355559    0.050521    0.437268
  C     -7.350865   -0.872478    0.081566
  C     -6.951162   -2.014924   -0.606858
  C     -4.268915    1.009810    0.650602
  C     -5.251080    1.814977    1.299782
  N     -6.494786    1.232680    1.143155
  C     -4.938842    2.993725    1.993429
  C     -3.598315    3.368459    2.048409
  C     -2.610963    2.602867    1.414569
  C     -2.913042    1.432540    0.693187
  H     -1.577612    2.936208    1.457972
  H     -7.362642    1.595529    1.518050
  H     -3.311520    4.270111    2.581947
  H     -3.577475   -1.511337   -0.826833
  H     -8.392641   -0.703281    0.340395
  H     -7.693516   -2.753097   -0.898338
  H     -5.317316   -3.138111   -1.451304
  C      3.672178   -0.817913   -0.946227
  N      3.151951   -1.459002   -2.004540
  O      1.812365   -1.226639   -1.990349
  C      1.492512   -0.452653   -0.941885
  C      2.635902   -0.152176   -0.228162
  C      0.097345   -0.084952   -0.742970
  N     -0.875647   -0.489608   -1.572706
  O     -2.036134    0.028526   -1.090204
  C     -1.806393    0.742365    0.022107
  C     -0.450852    0.720122    0.296805
  H      0.068159    1.183842    1.122954
  H      2.717016    0.448207    0.664885
  C      7.346203   -1.679228   -1.310553
  C      7.911045   -1.015807   -0.208965
  C      7.087570   -0.285079    0.654701
  C      5.703406   -0.205366    0.435849
  C      5.116646   -0.866493   -0.667654
  C      5.967852   -1.596283   -1.523286
  O      4.972516    0.526654    1.323748
  O      7.629609    0.375786    1.747037
  O      9.260871   -1.053536    0.062658
  H      5.530732   -2.108555   -2.374140
  H      5.593028    0.876510    1.983139
  H      8.585166    0.208621    1.735139
  H      9.713976   -1.587123   -0.603915
  H     -5.712248    3.584173    2.476438
  H      7.976589   -2.249060   -1.986929

----------------------------
CARTESIAN COORDINATES (A.U.)
----------------------------
  NO LB      ZA    FRAG     MASS         X           Y           Z
   0 C     6.0000    0    12.011  -10.579610   -4.216852   -1.743940
   1 C     6.0000    0    12.011   -8.718037   -2.477718   -1.084199
   2 C     6.0000    0    12.011   -9.416767   -0.258735    0.207145
   3 C     6.0000    0    12.011  -12.010265    0.095471    0.826316
   4 C     6.0000    0    12.011  -13.891122   -1.648744    0.154137
   5 C     6.0000    0    12.011  -13.135792   -3.807654   -1.146795
   6 C     6.0000    0    12.011   -8.067081    1.908264    1.229460
   7 C     6.0000    0    12.011   -9.923103    3.429810    2.456232
   8 N     7.0000    0    14.007  -12.273367    2.329428    2.160250
   9 C     6.0000    0    12.011   -9.333058    5.657320    3.767036
  10 C     6.0000    0    12.011   -6.799831    6.365464    3.870933
  11 C     6.0000    0    12.011   -4.934005    4.918705    2.673147
  12 C     6.0000    0    12.011   -5.504852    2.707108    1.309934
  13 H     1.0000    0     1.008   -2.981255    5.548629    2.755167
  14 H     1.0000    0     1.008  -13.913378    3.015113    2.868699
  15 H     1.0000    0     1.008   -6.257867    8.069340    4.879172
  16 H     1.0000    0     1.008   -6.760449   -2.856013   -1.562488
  17 H     1.0000    0     1.008  -15.859792   -1.329009    0.643253
  18 H     1.0000    0     1.008  -14.538638   -5.202600   -1.697613
  19 H     1.0000    0     1.008  -10.048270   -5.930171   -2.742568
  20 C     6.0000    0    12.011    6.939411   -1.545631   -1.788110
  21 N     7.0000    0    14.007    5.956323   -2.757114   -3.788031
  22 O     8.0000    0    15.999    3.424874   -2.318013   -3.761215
  23 C     6.0000    0    12.011    2.820439   -0.855391   -1.779905
  24 C     6.0000    0    12.011    4.981133   -0.287570   -0.431164
  25 C     6.0000    0    12.011    0.183956   -0.160536   -1.404011
  26 N     7.0000    0    14.007   -1.654733   -0.925226   -2.971984
  27 O     8.0000    0    15.999   -3.847735    0.053907   -2.060188
  28 C     6.0000    0    12.011   -3.413588    1.402866    0.041776
  29 C     6.0000    0    12.011   -0.851986    1.360834    0.560880
  30 H     1.0000    0     1.008    0.128801    2.237138    2.122076
  31 H     1.0000    0     1.008    5.134416    0.846989    1.256451
  32 C     6.0000    0    12.011   13.882311   -3.173281   -2.476585
  33 C     6.0000    0    12.011   14.949708   -1.919598   -0.394886
  34 C     6.0000    0    12.011   13.393567   -0.538721    1.237205
  35 C     6.0000    0    12.011   10.777875   -0.388086    0.823636
  36 C     6.0000    0    12.011    9.669060   -1.637435   -1.261683
  37 C     6.0000    0    12.011   11.277606   -3.016538   -2.878593
  38 O     8.0000    0    15.999    9.396693    0.995232    2.501522
  39 O     8.0000    0    15.999   14.417871    0.710132    3.301422
  40 O     8.0000    0    15.999   17.500511   -1.990895    0.118407
  41 H     1.0000    0     1.008   10.451569   -3.984591   -4.486474
  42 H     1.0000    0     1.008   10.569292    1.656364    3.747589
  43 H     1.0000    0     1.008   16.223613    0.394237    3.278937
  44 H     1.0000    0     1.008   18.356755   -2.999227   -1.141235
  45 H     1.0000    0     1.008  -10.794584    6.773105    4.679789
  46 H     1.0000    0     1.008   15.073568   -4.250108   -3.754753

--------------------------------
INTERNAL COORDINATES (ANGSTROEM)
--------------------------------
 C      0   0   0     0.000000000000     0.00000000     0.00000000
 C      1   0   0     1.392580715448     0.00000000     0.00000000
 C      2   1   0     1.408017078347   119.14656819     0.00000000
 C      3   2   1     1.423385072119   118.34247029     1.05884060
 C      4   3   2     1.403240982904   122.61064089   358.61984543
 C      5   4   3     1.392434198967   117.47693028     0.66219205
 C      3   2   1     1.455253299098   135.12852527   178.49182070
 C      7   3   2     1.426315752534   106.02561069   183.46981544
 N      8   7   3     1.382174702538   109.28205045   358.43223865
 C      8   7   3     1.402884799613   123.09984426   177.46453275
 C     10   8   7     1.393003629461   117.36973540   359.35543207
 C     11  10   8     1.400981608577   120.88689543     0.98838102
 C     12  11  10     1.407588995313   122.34224740     0.24044979
 H     12  11  10     1.086652752126   118.97858952   178.60430677
 H      9   8   7     1.012610571320   125.32916646   179.16404258
 H     11  10   8     1.086227387233   119.78642379   180.47884877
 H      2   1   3     1.085009325808   119.66787056   179.69798092
 H      5   4   3     1.086699617021   121.14344438   180.26421560
 H      6   5   4     1.086715498942   119.59307519   179.93925936
 H      1   2   3     1.086431133410   119.36514427   179.92301855
 C     14  12  11     6.887226983832   122.93640824   173.57668275
 N     21  14  12     1.342258469595   103.89527260    33.78385104
 O     22  21  14     1.359662712046   106.97775306   351.36855681
 C     23  22  21     1.341878286715   109.97253944     0.00000000
 C     24  23  22     1.380951575345   109.38831282     0.00000000
 C     24  23  22     1.456454798588   118.72865890   180.03289676
 N     26  24  23     1.341239235628   122.29355951   359.79631741
 O     27  26  24     1.359412072362   106.54211920   179.85110703
 C     28  27  26     1.341485020798   110.54348520   359.82491509
 C     29  28  27     1.383273217256   108.90068742     0.58743822
 H     30  29  28     1.080245970061   128.00969654   180.73227142
 H     25  24  23     1.079154017753   127.66119926   180.00361222
 C     21  14  12     3.791180808809   153.64726612   194.41234921
 C     33  21  14     1.404517614060   101.94950596    19.15024969
 C     34  33  21     1.399282879823   119.60999574     0.00000000
 C     35  34  33     1.403624607287   120.91455440     0.00000000
 C     36  35  34     1.413893486081   120.29003083     0.00000000
 C     33  21  14     1.397134579081    17.26857709   199.15387940
 O     36  35  34     1.363238385367   117.23567964   180.00103157
 O     35  34  33     1.386991820268   120.32690597   180.00047271
 O     34  33  21     1.377401070896   122.40081935   179.99822231
 H     38  33  21     1.085102939240   119.26092793   180.00372812
 H     39  36  35     0.970685469480   107.05248279     0.00000000
 H     40  35  34     0.970141963270   107.04764175     0.00000000
 H     41  34  33     0.966611924670   109.78573134     0.00000000
 H     10   8   7     1.086315798263   121.20346039   179.95598456
 H     33  21  14     1.086085187651   137.86184852   199.14890745

---------------------------
INTERNAL COORDINATES (A.U.)
---------------------------
 C      0   0   0     0.000000000000     0.00000000     0.00000000
 C      1   0   0     2.631596171576     0.00000000     0.00000000
 C      2   1   0     2.660766669959   119.14656819     0.00000000
 C      3   2   1     2.689807969418   118.34247029     1.05884060
 C      4   3   2     2.651741157584   122.61064089   358.61984543
 C      5   4   3     2.631319295553   117.47693028     0.66219205
 C      3   2   1     2.750030190780   135.12852527   178.49182070
 C      7   3   2     2.695346152787   106.02561069   183.46981544
 N      8   7   3     2.611931657032   109.28205045   358.43223865
 C      8   7   3     2.651068068709   123.09984426   177.46453275
 C     10   8   7     2.632395363240   117.36973540   359.35543207
 C     11  10   8     2.647471558871   120.88689543     0.98838102
 C     12  11  10     2.659957710264   122.34224740     0.24044979
 H     12  11  10     2.053476104189   118.97858952   178.60430677
 H      9   8   7     1.913556660108   125.32916646   179.16404258
 H     11  10   8     2.052672281035   119.78642379   180.47884877
 H      2   1   3     2.050370478528   119.66787056   179.69798092
 H      5   4   3     2.053564666007   121.14344438   180.26421560
 H      6   5   4     2.053594678487   119.59307519   179.93925936
 H      1   2   3     2.053057305511   119.36514427   179.92301855
 C     14  12  11    13.014972821594   122.93640824   173.57668275
 N     21  14  12     2.536500908471   103.89527260    33.78385104
 O     22  21  14     2.569390160271   106.97775306   351.36855681
 C     23  22  21     2.535782466947   109.97253944     0.00000000
 C     24  23  22     2.609620281609   109.38831282     0.00000000
 C     24  23  22     2.752300695767   118.72865890   180.03289676
 N     26  24  23     2.534574835406   122.29355951   359.79631741
 O     27  26  24     2.568916519911   106.54211920   179.85110703
 C     28  27  26     2.535039302066   110.54348520   359.82491509
 C     29  28  27     2.614007549001   108.90068742     0.58743822
 H     30  29  28     2.041369040688   128.00969654   180.73227142
 H     25  24  23     2.039305549874   127.66119926   180.00361222
 C     21  14  12     7.164293452827   153.64726612   194.41234921
 C     33  21  14     2.654153640842   101.94950596    19.15024969
 C     34  33  21     2.644261426751   119.60999574     0.00000000
 C     35  34  33     2.652466102604   120.91455440     0.00000000
 C     36  35  34     2.671871471229   120.29003083     0.00000000
 C     33  21  14     2.640201726694    17.26857709   199.15387940
 O     36  35  34     2.576147203593   117.23567964   180.00103157
 O     35  34  33     2.621034690296   120.32690597   180.00047271
 O     34  33  21     2.602910800563   122.40081935   179.99822231
 H     38  33  21     2.050547382277   119.26092793   180.00372812
 H     39  36  35     1.834329699493   107.05248279     0.00000000
 H     40  35  34     1.833302621606   107.04764175     0.00000000
 H     41  34  33     1.826631815409   109.78573134     0.00000000
 H     10   8   7     2.052839353669   121.20346039   179.95598456
 H     33  21  14     2.052403562769   137.86184852   199.14890745

---------------------
BASIS SET INFORMATION
---------------------
There are 4 groups of distinct atoms

 Group   1 Type C   : 11s6p2d1f contracted to 5s3p2d1f pattern {62111/411/11/1}
 Group   2 Type N   : 11s6p2d1f contracted to 5s3p2d1f pattern {62111/411/11/1}
 Group   3 Type H   : 5s1p contracted to 3s1p pattern {311/1}
 Group   4 Type O   : 11s6p2d1f contracted to 5s3p2d1f pattern {62111/411/11/1}

Atom   0C    basis set group =>   1
Atom   1C    basis set group =>   1
Atom   2C    basis set group =>   1
Atom   3C    basis set group =>   1
Atom   4C    basis set group =>   1
Atom   5C    basis set group =>   1
Atom   6C    basis set group =>   1
Atom   7C    basis set group =>   1
Atom   8N    basis set group =>   2
Atom   9C    basis set group =>   1
Atom  10C    basis set group =>   1
Atom  11C    basis set group =>   1
Atom  12C    basis set group =>   1
Atom  13H    basis set group =>   3
Atom  14H    basis set group =>   3
Atom  15H    basis set group =>   3
Atom  16H    basis set group =>   3
Atom  17H    basis set group =>   3
Atom  18H    basis set group =>   3
Atom  19H    basis set group =>   3
Atom  20C    basis set group =>   1
Atom  21N    basis set group =>   2
Atom  22O    basis set group =>   4
Atom  23C    basis set group =>   1
Atom  24C    basis set group =>   1
Atom  25C    basis set group =>   1
Atom  26N    basis set group =>   2
Atom  27O    basis set group =>   4
Atom  28C    basis set group =>   1
Atom  29C    basis set group =>   1
Atom  30H    basis set group =>   3
Atom  31H    basis set group =>   3
Atom  32C    basis set group =>   1
Atom  33C    basis set group =>   1
Atom  34C    basis set group =>   1
Atom  35C    basis set group =>   1
Atom  36C    basis set group =>   1
Atom  37C    basis set group =>   1
Atom  38O    basis set group =>   4
Atom  39O    basis set group =>   4
Atom  40O    basis set group =>   4
Atom  41H    basis set group =>   3
Atom  42H    basis set group =>   3
Atom  43H    basis set group =>   3
Atom  44H    basis set group =>   3
Atom  45H    basis set group =>   3
Atom  46H    basis set group =>   3
-------------------------------
AUXILIARY BASIS SET INFORMATION
-------------------------------
There are 4 groups of distinct atoms

 Group   1 Type C   : 12s5p4d2f1g contracted to 6s4p3d1f1g pattern {711111/2111/211/2/1}
 Group   2 Type N   : 12s5p4d2f1g contracted to 6s4p3d1f1g pattern {711111/2111/211/2/1}
 Group   3 Type H   : 5s2p1d contracted to 3s1p1d pattern {311/2/1}
 Group   4 Type O   : 12s5p4d2f1g contracted to 6s4p3d1f1g pattern {711111/2111/211/2/1}

Atom   0C    basis set group =>   1
Atom   1C    basis set group =>   1
Atom   2C    basis set group =>   1
Atom   3C    basis set group =>   1
Atom   4C    basis set group =>   1
Atom   5C    basis set group =>   1
Atom   6C    basis set group =>   1
Atom   7C    basis set group =>   1
Atom   8N    basis set group =>   2
Atom   9C    basis set group =>   1
Atom  10C    basis set group =>   1
Atom  11C    basis set group =>   1
Atom  12C    basis set group =>   1
Atom  13H    basis set group =>   3
Atom  14H    basis set group =>   3
Atom  15H    basis set group =>   3
Atom  16H    basis set group =>   3
Atom  17H    basis set group =>   3
Atom  18H    basis set group =>   3
Atom  19H    basis set group =>   3
Atom  20C    basis set group =>   1
Atom  21N    basis set group =>   2
Atom  22O    basis set group =>   4
Atom  23C    basis set group =>   1
Atom  24C    basis set group =>   1
Atom  25C    basis set group =>   1
Atom  26N    basis set group =>   2
Atom  27O    basis set group =>   4
Atom  28C    basis set group =>   1
Atom  29C    basis set group =>   1
Atom  30H    basis set group =>   3
Atom  31H    basis set group =>   3
Atom  32C    basis set group =>   1
Atom  33C    basis set group =>   1
Atom  34C    basis set group =>   1
Atom  35C    basis set group =>   1
Atom  36C    basis set group =>   1
Atom  37C    basis set group =>   1
Atom  38O    basis set group =>   4
Atom  39O    basis set group =>   4
Atom  40O    basis set group =>   4
Atom  41H    basis set group =>   3
Atom  42H    basis set group =>   3
Atom  43H    basis set group =>   3
Atom  44H    basis set group =>   3
Atom  45H    basis set group =>   3
Atom  46H    basis set group =>   3
-------------------------
ECP PARAMETER INFORMATION
-------------------------



--------------------------------------------------------------------------
[[12146,1],20]: A high-performance Open MPI point-to-point messaging module
was unable to find any relevant network interfaces:

Module: OpenFabrics (openib)
  Host: cx1-103-6-2

Another transport will be used instead, although this may result in
lower performance.
--------------------------------------------------------------------------


           ************************************************************
           *        Program running with 24 parallel MPI-processes    *
           *              working on a common directory               *
           ************************************************************
------------------------------------------------------------------------------
                           ORCA GTO INTEGRAL CALCULATION
                           -- RI-GTO INTEGRALS CHOSEN --
------------------------------------------------------------------------------

                         BASIS SET STATISTICS AND STARTUP INFO

Gaussian basis set:
 # of primitive gaussian shells          ...  730
 # of primitive gaussian functions       ... 1592
 # of contracted shells                  ...  412
 # of contracted basis functions         ... 1082
 Highest angular momentum                ...    3
 Maximum contraction depth               ...    6
Auxiliary gaussian basis set:
 # of primitive gaussian shells          ...  888
 # of primitive gaussian functions       ... 2480
 # of contracted shells                  ...  555
 # of contracted aux-basis functions     ... 1733
 Highest angular momentum                ...    4
 Maximum contraction depth               ...    7
Ratio of auxiliary to basis functions    ...  1.60
Integral package used                  ... LIBINT
 One Electron integrals                  
   ECP integrals                         ... done
 Ordering auxiliary basis shells         ... done
 Integral threshhold             Thresh  ...  2.500e-11
 Primitive cut-off               TCut    ...  2.500e-12
 Pre-screening matrix                    ... done
 Shell pair data                         ... 
 Ordering of the shell pairs             ... done (   0.011 sec) 43579 of 85078 pairs
 Determination of significant pairs      ... done (   0.000 sec)
 Creation of shell pair data             ... done (   0.007 sec)
 Storage of shell pair data              ... done (   0.109 sec)
 Shell pair data done in (   0.127 sec)
 Computing two index integrals           ... done
 Cholesky decomposition of the V-matrix  ... done


Timings:
 Total evaluation time                   ...   4.298 sec (  0.072 min)
 One electron matrix time                ...   1.280 sec (  0.021 min) = 29.8%
 Schwartz matrix evaluation time         ...   1.637 sec (  0.027 min) = 38.1%
 Two index repulsion integral time       ...   0.686 sec (  0.011 min) = 16.0%
 Cholesky decomposition of V             ...   0.537 sec (  0.009 min) = 12.5%
 Three index repulsion integral time     ...   0.000 sec (  0.000 min) =  0.0%

--------------------------------------------------------------------------
[[12068,1],6]: A high-performance Open MPI point-to-point messaging module
was unable to find any relevant network interfaces:

Module: OpenFabrics (openib)
  Host: cx1-103-6-2

Another transport will be used instead, although this may result in
lower performance.
--------------------------------------------------------------------------


           ************************************************************
           *        Program running with 24 parallel MPI-processes    *
           *              working on a common directory               *
           ************************************************************
-------------------------------------------------------------------------------
                                 ORCA SCF
-------------------------------------------------------------------------------

------------
SCF SETTINGS
------------
Hamiltonian:
 Density Functional     Method          .... DFT(GTOs)
 Exchange Functional    Exchange        .... WB97X-D3
 Correlation Functional Correlation     .... WB97X-D3
 Gradients option       PostSCFGGA      .... off
 Hybrid DFT is turned on
   Fraction HF Exchange ScalHFX         ....  0.195728
   Scaling of DF-GGA-X  ScalDFX         ....  0.000000
   Scaling of DF-GGA-C  ScalDFC         ....  1.000000
   Scaling of DF-LDA-C  ScalLDAC        ....  1.000000
   Perturbative correction              ....  0.000000
 Long-range corrected/Screened/Range-Separated Hybrid DFT is turned on
   Amount of maximum screened exact exchange              ....  0.804272
   Range separation parameter mu (erf(mu*r12)/r12)        ....  0.250000
 RI-approximation to the Coulomb term is turned on
   Number of auxiliary basis functions  .... 1733
   RIJ-COSX (HFX calculated with COS-X)).... on


General Settings:
 Integral files         IntName         .... total
 Hartree-Fock type      HFTyp           .... RHF
 Total Charge           Charge          ....    0
 Multiplicity           Mult            ....    1
 Number of Electrons    NEL             ....  220
 Basis Dimension        Dim             .... 1082
 Nuclear Repulsion      ENuc            ....   2776.8752113553 Eh

Convergence Acceleration:
 DIIS                   CNVDIIS         .... on
   Start iteration      DIISMaxIt       ....    12
   Startup error        DIISStart       ....  0.200000
   # of expansion vecs  DIISMaxEq       ....     5
   Bias factor          DIISBfac        ....   1.050
   Max. coefficient     DIISMaxC        ....  10.000
 Newton-Raphson         CNVNR           .... off
 SOSCF                  CNVSOSCF        .... on
   Start iteration      SOSCFMaxIt      ....   150
   Startup grad/error   SOSCFStart      ....  0.003300
 Level Shifting         CNVShift        .... on
   Level shift para.    LevelShift      ....    0.2500
   Turn off err/grad.   ShiftErr        ....    0.0010
 Zerner damping         CNVZerner       .... off
 Static damping         CNVDamp         .... on
   Fraction old density DampFac         ....    0.7000
   Max. Damping (<1)    DampMax         ....    0.9800
   Min. Damping (>=0)   DampMin         ....    0.0000
   Turn off err/grad.   DampErr         ....    0.1000
 Fernandez-Rico         CNVRico         .... off

SCF Procedure:
 Maximum # iterations   MaxIter         ....   125
 SCF integral mode      SCFMode         .... Direct
   Integral package                     .... LIBINT
 Reset frequeny         DirectResetFreq ....    20
 Integral Threshold     Thresh          ....  2.500e-11 Eh
 Primitive CutOff       TCut            ....  2.500e-12 Eh

Convergence Tolerance:
 Convergence Check Mode ConvCheckMode   .... Total+1el-Energy
 Convergence forced     ConvForced      .... 1
 Energy Change          TolE            ....  1.000e-08 Eh
 1-El. energy change                    ....  1.000e-05 Eh
 Orbital Gradient       TolG            ....  1.000e-05
 Orbital Rotation angle TolX            ....  1.000e-05
 DIIS Error             TolErr          ....  5.000e-07


Diagonalization of the overlap matrix:
Smallest eigenvalue                        ... 6.039e-06
Time for diagonalization                   ...    0.386 sec
Threshold for overlap eigenvalues          ... 1.000e-08
Number of eigenvalues below threshold      ... 0
Time for construction of square roots      ...    0.351 sec
Total time needed                          ...    0.748 sec

-------------------
DFT GRID GENERATION
-------------------

General Integration Accuracy     IntAcc      ...  5.010
Radial Grid Type                 RadialGrid  ... Gauss-Chebyshev
Angular Grid (max. acc.)         AngularGrid ... Lebedev-434
Angular grid pruning method      GridPruning ... 3 (G Style)
Weight generation scheme         WeightScheme... Becke
Basis function cutoff            BFCut       ...    1.0000e-11
Integration weight cutoff        WCut        ...    1.0000e-14
Grids for H and He will be reduced by one unit

# of grid points (after initial pruning)     ... 443112 (   0.0 sec)
# of grid points (after weights+screening)   ... 389647 (   0.9 sec)
nearest neighbour list constructed           ...    0.0 sec
Grid point re-assignment to atoms done       ...    0.1 sec
Grid point division into batches done        ...    3.6 sec
Reduced shell lists constructed in    4.2 sec

Total number of grid points                  ...   389647
Total number of batches                      ...     6115
Average number of points per batch           ...       63
Average number of grid points per atom       ...     8290
Average number of shells per batch           ...   132.85 (32.24%)
Average number of basis functions per batch  ...   342.68 (31.67%)
Average number of large shells per batch     ...    91.33 (68.75%)
Average number of large basis fcns per batch ...   235.78 (68.80%)
Maximum spatial batch extension              ...   7.72, 15.43, 20.98 au
Average spatial batch extension              ...   0.05,  0.06,  0.06 au

Time for grid setup =    5.872 sec

------------------------------
INITIAL GUESS: MODEL POTENTIAL
------------------------------
Loading Hartree-Fock densities                     ... done
Calculating cut-offs                               ... done
Setting up the integral package                    ... done
Initializing the effective Hamiltonian             ... done
Starting the Coulomb interaction                   ... done (   0.3 sec)
Reading the grid                                   ... done
Mapping shells                                     ... done
Starting the XC term evaluation                    ... done (   1.8 sec)
  promolecular density results
     # of electrons  =    219.992765587
     EX              =   -187.652976910
     EC              =     -7.475941811
     EX+EC           =   -195.128918721
Transforming the Hamiltonian                       ... done (   0.2 sec)
Diagonalizing the Hamiltonian                      ... done (   0.3 sec)
Back transforming the eigenvectors                 ... done (   0.1 sec)
Now organizing SCF variables                       ... done
                      ------------------
                      INITIAL GUESS DONE (   8.8 sec)
                      ------------------
--------------------
COSX GRID GENERATION
--------------------

General Integration Accuracy     IntAcc      ...  3.340
Radial Grid Type                 RadialGrid  ... Gauss-Chebyshev
Angular Grid (max. acc.)         AngularGrid ... Lebedev-50
Angular grid pruning method      GridPruning ... 3 (G Style)
Weight generation scheme         WeightScheme... Becke
Basis function cutoff            BFCut       ...    1.0000e-11
Integration weight cutoff        WCut        ...    1.0000e-14
Grids for H and He will be reduced by one unit

# of grid points (after initial pruning)     ...  23318 (   0.0 sec)
# of grid points (after weights+screening)   ...  21288 (   0.0 sec)
nearest neighbour list constructed           ...    0.0 sec
Grid point re-assignment to atoms done       ...    0.0 sec
Grid point division into batches done        ...    0.0 sec
Reduced shell lists constructed in    0.1 sec

Total number of grid points                  ...    21288
Total number of batches                      ...      354
Average number of points per batch           ...       60
Average number of grid points per atom       ...      453
Average number of shells per batch           ...   144.75 (35.13%)
Average number of basis functions per batch  ...   378.12 (34.95%)
Average number of large shells per batch     ...   101.56 (70.16%)
Average number of large basis fcns per batch ...   264.31 (69.90%)
Maximum spatial batch extension              ...   4.96, 10.05, 15.53 au
Average spatial batch extension              ...   0.10,  0.18,  0.24 au

Overlap Fitting                  UseSFitting ... on
Constructing numerical overlap ... done (      0.1 sec)
Inverting numerical overlap    ... done (      0.1 sec)
Obtaining analytic overlap     ... done (      0.0 sec)
Final contraction and storage  ... done (      0.4 sec)


General Integration Accuracy     IntAcc      ...  3.670
Radial Grid Type                 RadialGrid  ... Gauss-Chebyshev
Angular Grid (max. acc.)         AngularGrid ... Lebedev-50
Angular grid pruning method      GridPruning ... 3 (G Style)
Weight generation scheme         WeightScheme... Becke
Basis function cutoff            BFCut       ...    1.0000e-11
Integration weight cutoff        WCut        ...    1.0000e-14
Grids for H and He will be reduced by one unit

# of grid points (after initial pruning)     ...  29252 (   0.0 sec)
# of grid points (after weights+screening)   ...  26625 (   0.1 sec)
nearest neighbour list constructed           ...    0.0 sec
Grid point re-assignment to atoms done       ...    0.0 sec
Grid point division into batches done        ...    0.0 sec
Reduced shell lists constructed in    0.1 sec

Total number of grid points                  ...    26625
Total number of batches                      ...      441
Average number of points per batch           ...       60
Average number of grid points per atom       ...      566
Average number of shells per batch           ...   146.85 (35.64%)
Average number of basis functions per batch  ...   384.55 (35.54%)
Average number of large shells per batch     ...   102.50 (69.80%)
Average number of large basis fcns per batch ...   267.60 (69.59%)
Maximum spatial batch extension              ...   4.42, 11.45, 16.11 au
Average spatial batch extension              ...   0.10,  0.17,  0.25 au

Overlap Fitting                  UseSFitting ... on
Constructing numerical overlap ... done (      0.1 sec)
Inverting numerical overlap    ... done (      0.1 sec)
Obtaining analytic overlap     ... done (      0.0 sec)
Final contraction and storage  ... done (      0.4 sec)


General Integration Accuracy     IntAcc      ...  4.010
Radial Grid Type                 RadialGrid  ... Gauss-Chebyshev
Angular Grid (max. acc.)         AngularGrid ... Lebedev-110
Angular grid pruning method      GridPruning ... 3 (G Style)
Weight generation scheme         WeightScheme... Becke
Basis function cutoff            BFCut       ...    1.0000e-11
Integration weight cutoff        WCut        ...    1.0000e-14
Grids for H and He will be reduced by one unit

# of grid points (after initial pruning)     ...  56766 (   0.0 sec)
# of grid points (after weights+screening)   ...  51220 (   0.1 sec)
nearest neighbour list constructed           ...    0.0 sec
Grid point re-assignment to atoms done       ...    0.0 sec
Grid point division into batches done        ...    0.0 sec
Reduced shell lists constructed in    0.1 sec

Total number of grid points                  ...    51220
Total number of batches                      ...      824
Average number of points per batch           ...       62
Average number of grid points per atom       ...     1090
Average number of shells per batch           ...   145.25 (35.25%)
Average number of basis functions per batch  ...   380.19 (35.14%)
Average number of large shells per batch     ...   101.03 (69.55%)
Average number of large basis fcns per batch ...   263.97 (69.43%)
Maximum spatial batch extension              ...   4.71,  9.86, 15.87 au
Average spatial batch extension              ...   0.09,  0.12,  0.15 au

Overlap Fitting                  UseSFitting ... on
Constructing numerical overlap ... done (      0.2 sec)
Inverting numerical overlap    ... done (      0.1 sec)
Obtaining analytic overlap     ... done (      0.0 sec)
Final contraction and storage  ... done (      0.4 sec)

Time for X-Grid setup             =    3.025 sec
--------------
SCF ITERATIONS
--------------
ITER       Energy         Delta-E        Max-DP      RMS-DP      [F,P]     Damp
               ***  Starting incremental Fock matrix formation  ***
  0  -1463.4373269613   0.000000000000 0.03076565  0.00055863  0.2013759 0.7000
  1  -1463.6557088393  -0.218381878078 0.04108029  0.00046832  0.1069443 0.7000
                               ***Turning on DIIS***
  2  -1463.7709036255  -0.115194786110 0.08963336  0.00105848  0.0483876 0.0000
  3  -1463.9669757897  -0.196072164278 0.02425191  0.00027257  0.0427858 0.0000
  4  -1463.9908482888  -0.023872499043 0.01002253  0.00010385  0.0078629 0.0000
  5  -1463.9916541155  -0.000805826684 0.00397566  0.00003808  0.0041410 0.0000
                      *** Initiating the SOSCF procedure ***
                           *** Shutting down DIIS ***
                      *** Re-Reading the Fockian *** 
                      *** Removing any level shift *** 
ITER      Energy       Delta-E        Grad      Rot      Max-DP    RMS-DP
  6  -1463.99183104  -0.0001769199  0.000709  0.000709  0.003522  0.000029
               *** Restarting incremental Fock matrix formation ***
  7  -1463.99190075  -0.0000697191  0.000276  0.000695  0.005449  0.000085
  8  -1463.99190527  -0.0000045156  0.000237  0.000333  0.001893  0.000028
  9  -1463.99190971  -0.0000044389  0.000031  0.000122  0.001361  0.000020
 10  -1463.99190991  -0.0000002024  0.000041  0.000053  0.000394  0.000006
 11  -1463.99191013  -0.0000002148  0.000008  0.000017  0.000178  0.000002
 12  -1463.99191019  -0.0000000597  0.000005  0.000006  0.000271  0.000002
                  ***Gradient check signals convergence***
              ***Rediagonalizing the Fockian in SOSCF/NRSCF***

               *****************************************************
               *                     SUCCESS                       *
               *           SCF CONVERGED AFTER  13 CYCLES          *
               *****************************************************

Old exchange energy                            =    -60.933179422 Eh
New exchange energy                            =    -60.932730707 Eh
Exchange energy change after final integration =      0.000448715 Eh
Total energy after final integration           =  -1463.991461418 Eh
Final COS-X integration done in                =    32.798 sec

----------------
TOTAL SCF ENERGY
----------------

Total Energy       :        -1463.99146142 Eh          -39837.23295 eV

Components:
Nuclear Repulsion  :         2776.87521136 Eh           75562.61603 eV
Electronic Energy  :        -4240.86667277 Eh         -115399.84898 eV
One Electron Energy:        -7512.19572045 Eh         -204417.23792 eV
Two Electron Energy:         3271.32904768 Eh           89017.38894 eV

Virial components:
Potential Energy   :        -2920.68383592 Eh          -79475.84765 eV
Kinetic Energy     :         1456.69237450 Eh           39638.61470 eV
Virial Ratio       :            2.00501073


DFT components:
N(Alpha)           :      110.000010144466 electrons
N(Beta)            :      110.000010144466 electrons
N(Total)           :      220.000020288932 electrons
E(XC)              :     -138.320983680561 Eh       

---------------
SCF CONVERGENCE
---------------

  Last Energy change         ...    5.2982e-08  Tolerance :   1.0000e-08
  Last MAX-Density change    ...    2.6494e-14  Tolerance :   1.0000e-07
  Last RMS-Density change    ...    1.3679e-16  Tolerance :   5.0000e-09
  Last Orbital Gradient      ...    1.5362e-06  Tolerance :   1.0000e-05
  Last Orbital Rotation      ...    5.3262e-06  Tolerance :   1.0000e-05

             **** THE GBW FILE WAS UPDATED (total.gbw) ****
             **** DENSITY FILE WAS UPDATED (total.scfp.tmp) ****
             **** ENERGY FILE WAS UPDATED (total.en.tmp) ****
----------------
ORBITAL ENERGIES
----------------

  NO   OCC          E(Eh)            E(eV) 
   0   2.0000     -19.334541      -526.1196 
   1   2.0000     -19.324987      -525.8596 
   2   2.0000     -19.289970      -524.9068 
   3   2.0000     -19.281345      -524.6721 
   4   2.0000     -19.276782      -524.5479 
   5   2.0000     -14.477698      -393.9582 
   6   2.0000     -14.470591      -393.7648 
   7   2.0000     -14.467822      -393.6895 
   8   2.0000     -10.365320      -282.0547 
   9   2.0000     -10.362931      -281.9897 
  10   2.0000     -10.362413      -281.9756 
  11   2.0000     -10.360271      -281.9173 
  12   2.0000     -10.352223      -281.6983 
  13   2.0000     -10.340056      -281.3672 
  14   2.0000     -10.334041      -281.2036 
  15   2.0000     -10.328891      -281.0634 
  16   2.0000     -10.326876      -281.0086 
  17   2.0000     -10.317819      -280.7621 
  18   2.0000     -10.304751      -280.4065 
  19   2.0000     -10.303608      -280.3754 
  20   2.0000     -10.297630      -280.2127 
  21   2.0000     -10.297183      -280.2006 
  22   2.0000     -10.294807      -280.1359 
  23   2.0000     -10.293350      -280.0963 
  24   2.0000     -10.292153      -280.0637 
  25   2.0000     -10.292070      -280.0615 
  26   2.0000     -10.290773      -280.0262 
  27   2.0000     -10.289926      -280.0031 
  28   2.0000     -10.285714      -279.8885 
  29   2.0000     -10.284361      -279.8517 
  30   2.0000     -10.281233      -279.7666 
  31   2.0000     -10.272772      -279.5363 
  32   2.0000      -1.283369       -34.9222 
  33   2.0000      -1.272289       -34.6207 
  34   2.0000      -1.212700       -32.9992 
  35   2.0000      -1.196815       -32.5670 
  36   2.0000      -1.173682       -31.9375 
  37   2.0000      -1.108034       -30.1511 
  38   2.0000      -1.009104       -27.4591 
  39   2.0000      -0.993153       -27.0251 
  40   2.0000      -0.981566       -26.7098 
  41   2.0000      -0.965511       -26.2729 
  42   2.0000      -0.962679       -26.1958 
  43   2.0000      -0.934685       -25.4341 
  44   2.0000      -0.910075       -24.7644 
  45   2.0000      -0.902457       -24.5571 
  46   2.0000      -0.873107       -23.7584 
  47   2.0000      -0.869788       -23.6681 
  48   2.0000      -0.865576       -23.5535 
  49   2.0000      -0.846673       -23.0391 
  50   2.0000      -0.841334       -22.8939 
  51   2.0000      -0.777503       -21.1569 
  52   2.0000      -0.773233       -21.0407 
  53   2.0000      -0.768109       -20.9013 
  54   2.0000      -0.745808       -20.2945 
  55   2.0000      -0.736059       -20.0292 
  56   2.0000      -0.724348       -19.7105 
  57   2.0000      -0.715285       -19.4639 
  58   2.0000      -0.712921       -19.3996 
  59   2.0000      -0.701604       -19.0916 
  60   2.0000      -0.684012       -18.6129 
  61   2.0000      -0.681008       -18.5312 
  62   2.0000      -0.663377       -18.0514 
  63   2.0000      -0.644376       -17.5344 
  64   2.0000      -0.628678       -17.1072 
  65   2.0000      -0.616603       -16.7786 
  66   2.0000      -0.615755       -16.7555 
  67   2.0000      -0.606511       -16.5040 
  68   2.0000      -0.602084       -16.3835 
  69   2.0000      -0.598732       -16.2923 
  70   2.0000      -0.591833       -16.1046 
  71   2.0000      -0.583253       -15.8711 
  72   2.0000      -0.568372       -15.4662 
  73   2.0000      -0.564304       -15.3555 
  74   2.0000      -0.563427       -15.3316 
  75   2.0000      -0.561396       -15.2764 
  76   2.0000      -0.556233       -15.1359 
  77   2.0000      -0.548221       -14.9178 
  78   2.0000      -0.539553       -14.6820 
  79   2.0000      -0.532027       -14.4772 
  80   2.0000      -0.530472       -14.4349 
  81   2.0000      -0.526062       -14.3149 
  82   2.0000      -0.523749       -14.2519 
  83   2.0000      -0.514359       -13.9964 
  84   2.0000      -0.514130       -13.9902 
  85   2.0000      -0.501720       -13.6525 
  86   2.0000      -0.491136       -13.3645 
  87   2.0000      -0.487609       -13.2685 
  88   2.0000      -0.480930       -13.0868 
  89   2.0000      -0.473201       -12.8764 
  90   2.0000      -0.468762       -12.7557 
  91   2.0000      -0.468246       -12.7416 
  92   2.0000      -0.466044       -12.6817 
  93   2.0000      -0.464991       -12.6530 
  94   2.0000      -0.448452       -12.2030 
  95   2.0000      -0.445785       -12.1304 
  96   2.0000      -0.442689       -12.0462 
  97   2.0000      -0.435051       -11.8383 
  98   2.0000      -0.423897       -11.5348 
  99   2.0000      -0.409567       -11.1449 
 100   2.0000      -0.396267       -10.7830 
 101   2.0000      -0.395816       -10.7707 
 102   2.0000      -0.391040       -10.6407 
 103   2.0000      -0.371034       -10.0964 
 104   2.0000      -0.338182        -9.2024 
 105   2.0000      -0.331284        -9.0147 
 106   2.0000      -0.313734        -8.5371 
 107   2.0000      -0.304388        -8.2828 
 108   2.0000      -0.300994        -8.1905 
 109   2.0000      -0.289842        -7.8870 
 110   0.0000       0.001489         0.0405 
 111   0.0000       0.021857         0.5948 
 112   0.0000       0.047835         1.3017 
 113   0.0000       0.052415         1.4263 
 114   0.0000       0.069164         1.8820 
 115   0.0000       0.083532         2.2730 
 116   0.0000       0.087215         2.3733 
 117   0.0000       0.096488         2.6256 
 118   0.0000       0.108471         2.9517 
 119   0.0000       0.113800         3.0967 
 120   0.0000       0.118413         3.2222 
 121   0.0000       0.127851         3.4790 
 122   0.0000       0.137271         3.7353 
 123   0.0000       0.145154         3.9498 
 124   0.0000       0.147244         4.0067 
 125   0.0000       0.152407         4.1472 
 126   0.0000       0.161671         4.3993 
 127   0.0000       0.164002         4.4627 
 128   0.0000       0.166375         4.5273 
 129   0.0000       0.171567         4.6686 
 130   0.0000       0.176084         4.7915 
 131   0.0000       0.182270         4.9598 
 132   0.0000       0.184324         5.0157 
 133   0.0000       0.188419         5.1272 
 134   0.0000       0.195087         5.3086 
 135   0.0000       0.202281         5.5044 
 136   0.0000       0.205770         5.5993 
 137   0.0000       0.209897         5.7116 
 138   0.0000       0.215552         5.8655 
 139   0.0000       0.217986         5.9317 
 140   0.0000       0.231366         6.2958 
 141   0.0000       0.234584         6.3834 
 142   0.0000       0.238437         6.4882 
 143   0.0000       0.240122         6.5341 
 144   0.0000       0.247750         6.7416 
 145   0.0000       0.252280         6.8649 
 146   0.0000       0.257163         6.9978 
 147   0.0000       0.260387         7.0855 
 148   0.0000       0.262160         7.1337 
 149   0.0000       0.266285         7.2460 
 150   0.0000       0.271793         7.3959 
 151   0.0000       0.276389         7.5209 
 152   0.0000       0.277167         7.5421 
 153   0.0000       0.277640         7.5550 
 154   0.0000       0.282599         7.6899 
 155   0.0000       0.285253         7.7621 
 156   0.0000       0.287093         7.8122 
 157   0.0000       0.288241         7.8434 
 158   0.0000       0.294385         8.0106 
 159   0.0000       0.296391         8.0652 
 160   0.0000       0.297018         8.0823 
 161   0.0000       0.301143         8.1945 
 162   0.0000       0.304648         8.2899 
 163   0.0000       0.310305         8.4438 
 164   0.0000       0.314383         8.5548 
 165   0.0000       0.319460         8.6929 
 166   0.0000       0.322410         8.7732 
 167   0.0000       0.332458         9.0466 
 168   0.0000       0.333649         9.0791 
 169   0.0000       0.335524         9.1301 
 170   0.0000       0.338076         9.1995 
 171   0.0000       0.341503         9.2928 
 172   0.0000       0.345317         9.3965 
 173   0.0000       0.348284         9.4773 
 174   0.0000       0.354331         9.6418 
 175   0.0000       0.357502         9.7281 
 176   0.0000       0.359843         9.7918 
 177   0.0000       0.364350         9.9145 
 178   0.0000       0.369006        10.0412 
 179   0.0000       0.373205        10.1554 
 180   0.0000       0.376161        10.2359 
 181   0.0000       0.378395        10.2967 
 182   0.0000       0.378853        10.3091 
 183   0.0000       0.384779        10.4704 
 184   0.0000       0.386966        10.5299 
 185   0.0000       0.389125        10.5886 
 186   0.0000       0.394733        10.7412 
 187   0.0000       0.400613        10.9012 
 188   0.0000       0.405957        11.0467 
 189   0.0000       0.407586        11.0910 
 190   0.0000       0.408869        11.1259 
 191   0.0000       0.415631        11.3099 
 192   0.0000       0.418316        11.3829 
 193   0.0000       0.423193        11.5157 
 194   0.0000       0.424134        11.5413 
 195   0.0000       0.426833        11.6147 
 196   0.0000       0.430901        11.7254 
 197   0.0000       0.433623        11.7995 
 198   0.0000       0.434829        11.8323 
 199   0.0000       0.435655        11.8548 
 200   0.0000       0.439189        11.9509 
 201   0.0000       0.439520        11.9599 
 202   0.0000       0.443229        12.0609 
 203   0.0000       0.448521        12.2049 
 204   0.0000       0.452358        12.3093 
 205   0.0000       0.457486        12.4488 
 206   0.0000       0.458549        12.4778 
 207   0.0000       0.460231        12.5235 
 208   0.0000       0.464937        12.6516 
 209   0.0000       0.468132        12.7385 
 210   0.0000       0.472333        12.8528 
 211   0.0000       0.474214        12.9040 
 212   0.0000       0.479752        13.0547 
 213   0.0000       0.482119        13.1191 
 214   0.0000       0.484789        13.1918 
 215   0.0000       0.487859        13.2753 
 216   0.0000       0.493344        13.4246 
 217   0.0000       0.496100        13.4996 
 218   0.0000       0.501268        13.6402 
 219   0.0000       0.504631        13.7317 
 220   0.0000       0.508438        13.8353 
 221   0.0000       0.511026        13.9057 
 222   0.0000       0.512864        13.9557 
 223   0.0000       0.517392        14.0789 
 224   0.0000       0.521861        14.2006 
 225   0.0000       0.527006        14.3406 
 226   0.0000       0.527813        14.3625 
 227   0.0000       0.533610        14.5203 
 228   0.0000       0.538354        14.6494 
 229   0.0000       0.541799        14.7431 
 230   0.0000       0.544393        14.8137 
 231   0.0000       0.549230        14.9453 
 232   0.0000       0.550771        14.9872 
 233   0.0000       0.554283        15.0828 
 234   0.0000       0.554836        15.0979 
 235   0.0000       0.558332        15.1930 
 236   0.0000       0.558742        15.2042 
 237   0.0000       0.567171        15.4335 
 238   0.0000       0.568566        15.4715 
 239   0.0000       0.569999        15.5105 
 240   0.0000       0.577422        15.7124 
 241   0.0000       0.578579        15.7439 
 242   0.0000       0.581683        15.8284 
 243   0.0000       0.589049        16.0288 
 244   0.0000       0.592827        16.1316 
 245   0.0000       0.596635        16.2353 
 246   0.0000       0.599919        16.3246 
 247   0.0000       0.612284        16.6611 
 248   0.0000       0.612518        16.6675 
 249   0.0000       0.616976        16.7888 
 250   0.0000       0.624582        16.9957 
 251   0.0000       0.631540        17.1851 
 252   0.0000       0.638974        17.3874 
 253   0.0000       0.640740        17.4354 
 254   0.0000       0.643644        17.5144 
 255   0.0000       0.645962        17.5775 
 256   0.0000       0.650140        17.6912 
 257   0.0000       0.657883        17.9019 
 258   0.0000       0.666345        18.1322 
 259   0.0000       0.669510        18.2183 
 260   0.0000       0.674758        18.3611 
 261   0.0000       0.681492        18.5443 
 262   0.0000       0.682635        18.5754 
 263   0.0000       0.684832        18.6352 
 264   0.0000       0.688511        18.7353 
 265   0.0000       0.691335        18.8122 
 266   0.0000       0.694473        18.8976 
 267   0.0000       0.695209        18.9176 
 268   0.0000       0.700384        19.0584 
 269   0.0000       0.703701        19.1487 
 270   0.0000       0.704546        19.1717 
 271   0.0000       0.709973        19.3193 
 272   0.0000       0.714416        19.4402 
 273   0.0000       0.720023        19.5928 
 274   0.0000       0.723909        19.6986 
 275   0.0000       0.726209        19.7612 
 276   0.0000       0.732263        19.9259 
 277   0.0000       0.734407        19.9842 
 278   0.0000       0.743431        20.2298 
 279   0.0000       0.746742        20.3199 
 280   0.0000       0.747571        20.3424 
 281   0.0000       0.753277        20.4977 
 282   0.0000       0.753904        20.5148 
 283   0.0000       0.762272        20.7425 
 284   0.0000       0.769234        20.9319 
 285   0.0000       0.771951        21.0059 
 286   0.0000       0.772923        21.0323 
 287   0.0000       0.780191        21.2301 
 288   0.0000       0.782606        21.2958 
 289   0.0000       0.784069        21.3356 
 290   0.0000       0.788260        21.4496 
 291   0.0000       0.793200        21.5841 
 292   0.0000       0.797664        21.7055 
 293   0.0000       0.800517        21.7832 
 294   0.0000       0.803771        21.8717 
 295   0.0000       0.807338        21.9688 
 296   0.0000       0.808073        21.9888 
 297   0.0000       0.815263        22.1844 
 298   0.0000       0.822064        22.3695 
 299   0.0000       0.826144        22.4805 
 300   0.0000       0.829299        22.5664 
 301   0.0000       0.834033        22.6952 
 302   0.0000       0.835393        22.7322 
 303   0.0000       0.846567        23.0363 
 304   0.0000       0.846921        23.0459 
 305   0.0000       0.851209        23.1626 
 306   0.0000       0.853870        23.2350 
 307   0.0000       0.862008        23.4564 
 308   0.0000       0.864940        23.5362 
 309   0.0000       0.870095        23.6765 
 310   0.0000       0.872476        23.7413 
 311   0.0000       0.879965        23.9451 
 312   0.0000       0.885184        24.0871 
 313   0.0000       0.890950        24.2440 
 314   0.0000       0.898012        24.4361 
 315   0.0000       0.900879        24.5142 
 316   0.0000       0.908494        24.7214 
 317   0.0000       0.914118        24.8744 
 318   0.0000       0.919803        25.0291 
 319   0.0000       0.924304        25.1516 
 320   0.0000       0.924933        25.1687 
 321   0.0000       0.927207        25.2306 
 322   0.0000       0.937056        25.4986 
 323   0.0000       0.942966        25.6594 
 324   0.0000       0.948002        25.7964 
 325   0.0000       0.951210        25.8837 
 326   0.0000       0.951755        25.8986 
 327   0.0000       0.956120        26.0173 
 328   0.0000       0.959938        26.1213 
 329   0.0000       0.962898        26.2018 
 330   0.0000       0.967124        26.3168 
 331   0.0000       0.972197        26.4548 
 332   0.0000       0.975044        26.5323 
 333   0.0000       0.978388        26.6233 
 334   0.0000       0.987727        26.8774 
 335   0.0000       0.992244        27.0003 
 336   0.0000       0.993945        27.0466 
 337   0.0000       1.001821        27.2609 
 338   0.0000       1.004969        27.3466 
 339   0.0000       1.017547        27.6889 
 340   0.0000       1.023051        27.8386 
 341   0.0000       1.032430        28.0938 
 342   0.0000       1.034406        28.1476 
 343   0.0000       1.046329        28.4721 
 344   0.0000       1.048060        28.5192 
 345   0.0000       1.059549        28.8318 
 346   0.0000       1.063359        28.9355 
 347   0.0000       1.066111        29.0103 
 348   0.0000       1.077687        29.3253 
 349   0.0000       1.087661        29.5967 
 350   0.0000       1.090679        29.6789 
 351   0.0000       1.096608        29.8402 
 352   0.0000       1.104700        30.0604 
 353   0.0000       1.105830        30.0912 
 354   0.0000       1.113414        30.2975 
 355   0.0000       1.123572        30.5739 
 356   0.0000       1.131843        30.7990 
 357   0.0000       1.135675        30.9033 
 358   0.0000       1.138972        30.9930 
 359   0.0000       1.141261        31.0553 
 360   0.0000       1.145504        31.1708 
 361   0.0000       1.153213        31.3805 
 362   0.0000       1.157858        31.5069 
 363   0.0000       1.167046        31.7569 
 364   0.0000       1.172960        31.9179 
 365   0.0000       1.177717        32.0473 
 366   0.0000       1.182532        32.1783 
 367   0.0000       1.186258        32.2797 
 368   0.0000       1.192336        32.4451 
 369   0.0000       1.200551        32.6687 
 370   0.0000       1.204529        32.7769 
 371   0.0000       1.208646        32.8889 
 372   0.0000       1.218765        33.1643 
 373   0.0000       1.224340        33.3160 
 374   0.0000       1.229277        33.4503 
 375   0.0000       1.232671        33.5427 
 376   0.0000       1.246057        33.9069 
 377   0.0000       1.251404        34.0524 
 378   0.0000       1.259614        34.2758 
 379   0.0000       1.262997        34.3679 
 380   0.0000       1.275018        34.6950 
 381   0.0000       1.286032        34.9947 
 382   0.0000       1.289895        35.0998 
 383   0.0000       1.293200        35.1897 
 384   0.0000       1.302800        35.4510 
 385   0.0000       1.311329        35.6831 
 386   0.0000       1.316497        35.8237 
 387   0.0000       1.321101        35.9490 
 388   0.0000       1.327220        36.1155 
 389   0.0000       1.333655        36.2906 
 390   0.0000       1.336807        36.3764 
 391   0.0000       1.347326        36.6626 
 392   0.0000       1.347648        36.6714 
 393   0.0000       1.349952        36.7341 
 394   0.0000       1.354258        36.8512 
 395   0.0000       1.365272        37.1509 
 396   0.0000       1.369165        37.2569 
 397   0.0000       1.377664        37.4881 
 398   0.0000       1.380844        37.5747 
 399   0.0000       1.390529        37.8382 
 400   0.0000       1.398527        38.0558 
 401   0.0000       1.401989        38.1501 
 402   0.0000       1.406390        38.2698 
 403   0.0000       1.408575        38.3293 
 404   0.0000       1.413292        38.4576 
 405   0.0000       1.419719        38.6325 
 406   0.0000       1.431410        38.9506 
 407   0.0000       1.433632        39.0111 
 408   0.0000       1.441515        39.2256 
 409   0.0000       1.449368        39.4393 
 410   0.0000       1.449710        39.4486 
 411   0.0000       1.453165        39.5426 
 412   0.0000       1.456383        39.6302 
 413   0.0000       1.459219        39.7074 
 414   0.0000       1.464941        39.8631 
 415   0.0000       1.478343        40.2278 
 416   0.0000       1.480511        40.2867 
 417   0.0000       1.481694        40.3189 
 418   0.0000       1.487500        40.4769 
 419   0.0000       1.495137        40.6847 
 420   0.0000       1.500550        40.8320 
 421   0.0000       1.510200        41.0946 
 422   0.0000       1.514634        41.2153 
 423   0.0000       1.521921        41.4136 
 424   0.0000       1.532268        41.6951 
 425   0.0000       1.537461        41.8364 
 426   0.0000       1.545343        42.0509 
 427   0.0000       1.548615        42.1400 
 428   0.0000       1.549915        42.1753 
 429   0.0000       1.558346        42.4047 
 430   0.0000       1.564727        42.5784 
 431   0.0000       1.567391        42.6509 
 432   0.0000       1.574992        42.8577 
 433   0.0000       1.582137        43.0521 
 434   0.0000       1.590213        43.2719 
 435   0.0000       1.593803        43.3696 
 436   0.0000       1.595900        43.4266 
 437   0.0000       1.607645        43.7462 
 438   0.0000       1.609636        43.8004 
 439   0.0000       1.610281        43.8180 
 440   0.0000       1.611030        43.8384 
 441   0.0000       1.615792        43.9679 
 442   0.0000       1.625510        44.2324 
 443   0.0000       1.628299        44.3083 
 444   0.0000       1.629314        44.3359 
 445   0.0000       1.643007        44.7085 
 446   0.0000       1.645508        44.7765 
 447   0.0000       1.652681        44.9717 
 448   0.0000       1.657772        45.1103 
 449   0.0000       1.663323        45.2613 
 450   0.0000       1.668003        45.3887 
 451   0.0000       1.681592        45.7585 
 452   0.0000       1.687184        45.9106 
 453   0.0000       1.694632        46.1133 
 454   0.0000       1.696960        46.1766 
 455   0.0000       1.703078        46.3431 
 456   0.0000       1.707259        46.4569 
 457   0.0000       1.713643        46.6306 
 458   0.0000       1.720471        46.8164 
 459   0.0000       1.726103        46.9697 
 460   0.0000       1.733914        47.1822 
 461   0.0000       1.745100        47.4866 
 462   0.0000       1.749382        47.6031 
 463   0.0000       1.757017        47.8109 
 464   0.0000       1.758490        47.8509 
 465   0.0000       1.763372        47.9838 
 466   0.0000       1.769779        48.1581 
 467   0.0000       1.782457        48.5031 
 468   0.0000       1.784379        48.5554 
 469   0.0000       1.788966        48.6802 
 470   0.0000       1.790531        48.7228 
 471   0.0000       1.792692        48.7816 
 472   0.0000       1.796531        48.8861 
 473   0.0000       1.800293        48.9885 
 474   0.0000       1.805133        49.1202 
 475   0.0000       1.809167        49.2299 
 476   0.0000       1.815177        49.3935 
 477   0.0000       1.817278        49.4506 
 478   0.0000       1.827170        49.7198 
 479   0.0000       1.836810        49.9821 
 480   0.0000       1.838448        50.0267 
 481   0.0000       1.849490        50.3272 
 482   0.0000       1.855532        50.4916 
 483   0.0000       1.858933        50.5841 
 484   0.0000       1.861723        50.6601 
 485   0.0000       1.874885        51.0182 
 486   0.0000       1.896201        51.5982 
 487   0.0000       1.904592        51.8266 
 488   0.0000       1.907560        51.9073 
 489   0.0000       1.916328        52.1459 
 490   0.0000       1.929002        52.4908 
 491   0.0000       1.938407        52.7467 
 492   0.0000       1.948937        53.0333 
 493   0.0000       1.951373        53.0996 
 494   0.0000       1.957153        53.2569 
 495   0.0000       1.961276        53.3690 
 496   0.0000       1.968115        53.5551 
 497   0.0000       1.971957        53.6597 
 498   0.0000       1.978639        53.8415 
 499   0.0000       1.983246        53.9669 
 500   0.0000       1.986765        54.0626 
 501   0.0000       1.993411        54.2435 
 502   0.0000       1.998093        54.3709 
 503   0.0000       2.002733        54.4971 
 504   0.0000       2.008901        54.6650 
 505   0.0000       2.015613        54.8476 
 506   0.0000       2.020299        54.9751 
 507   0.0000       2.022746        55.0417 
 508   0.0000       2.028531        55.1991 
 509   0.0000       2.036348        55.4119 
 510   0.0000       2.043048        55.5942 
 511   0.0000       2.049687        55.7748 
 512   0.0000       2.060337        56.0646 
 513   0.0000       2.064561        56.1796 
 514   0.0000       2.069572        56.3159 
 515   0.0000       2.077226        56.5242 
 516   0.0000       2.089918        56.8696 
 517   0.0000       2.096327        57.0439 
 518   0.0000       2.099567        57.1321 
 519   0.0000       2.100808        57.1659 
 520   0.0000       2.116929        57.6046 
 521   0.0000       2.118970        57.6601 
 522   0.0000       2.126497        57.8649 
 523   0.0000       2.129990        57.9600 
 524   0.0000       2.135481        58.1094 
 525   0.0000       2.140942        58.2580 
 526   0.0000       2.151266        58.5389 
 527   0.0000       2.158097        58.7248 
 528   0.0000       2.169981        59.0482 
 529   0.0000       2.177660        59.2571 
 530   0.0000       2.178016        59.2668 
 531   0.0000       2.182195        59.3806 
 532   0.0000       2.188863        59.5620 
 533   0.0000       2.191493        59.6336 
 534   0.0000       2.194776        59.7229 
 535   0.0000       2.201197        59.8976 
 536   0.0000       2.203624        59.9637 
 537   0.0000       2.209867        60.1335 
 538   0.0000       2.227236        60.6062 
 539   0.0000       2.229495        60.6676 
 540   0.0000       2.232692        60.7546 
 541   0.0000       2.239531        60.9407 
 542   0.0000       2.243795        61.0568 
 543   0.0000       2.247388        61.1545 
 544   0.0000       2.251919        61.2778 
 545   0.0000       2.261796        61.5466 
 546   0.0000       2.268533        61.7299 
 547   0.0000       2.278200        61.9930 
 548   0.0000       2.282025        62.0971 
 549   0.0000       2.288148        62.2637 
 550   0.0000       2.292508        62.3823 
 551   0.0000       2.302081        62.6428 
 552   0.0000       2.311734        62.9055 
 553   0.0000       2.321094        63.1602 
 554   0.0000       2.323423        63.2235 
 555   0.0000       2.328583        63.3640 
 556   0.0000       2.336372        63.5759 
 557   0.0000       2.341149        63.7059 
 558   0.0000       2.349945        63.9452 
 559   0.0000       2.354238        64.0621 
 560   0.0000       2.362163        64.2777 
 561   0.0000       2.369236        64.4702 
 562   0.0000       2.378369        64.7187 
 563   0.0000       2.381259        64.7973 
 564   0.0000       2.388661        64.9988 
 565   0.0000       2.406277        65.4781 
 566   0.0000       2.412484        65.6470 
 567   0.0000       2.423672        65.9515 
 568   0.0000       2.430141        66.1275 
 569   0.0000       2.436221        66.2929 
 570   0.0000       2.439840        66.3914 
 571   0.0000       2.448335        66.6226 
 572   0.0000       2.452856        66.7456 
 573   0.0000       2.457301        66.8666 
 574   0.0000       2.468838        67.1805 
 575   0.0000       2.481478        67.5245 
 576   0.0000       2.500531        68.0429 
 577   0.0000       2.501917        68.0806 
 578   0.0000       2.507732        68.2389 
 579   0.0000       2.518149        68.5223 
 580   0.0000       2.531495        68.8855 
 581   0.0000       2.540091        69.1194 
 582   0.0000       2.548031        69.3354 
 583   0.0000       2.558112        69.6098 
 584   0.0000       2.564007        69.7702 
 585   0.0000       2.569130        69.9096 
 586   0.0000       2.574127        70.0456 
 587   0.0000       2.579325        70.1870 
 588   0.0000       2.590008        70.4777 
 589   0.0000       2.602939        70.8296 
 590   0.0000       2.616160        71.1893 
 591   0.0000       2.618694        71.2583 
 592   0.0000       2.631991        71.6201 
 593   0.0000       2.633713        71.6670 
 594   0.0000       2.646288        72.0092 
 595   0.0000       2.651992        72.1644 
 596   0.0000       2.659665        72.3732 
 597   0.0000       2.663249        72.4707 
 598   0.0000       2.670198        72.6598 
 599   0.0000       2.677623        72.8618 
 600   0.0000       2.687718        73.1365 
 601   0.0000       2.688801        73.1660 
 602   0.0000       2.690408        73.2097 
 603   0.0000       2.698828        73.4388 
 604   0.0000       2.700020        73.4713 
 605   0.0000       2.707455        73.6736 
 606   0.0000       2.712533        73.8118 
 607   0.0000       2.725438        74.1630 
 608   0.0000       2.730232        74.2934 
 609   0.0000       2.733528        74.3831 
 610   0.0000       2.733872        74.3924 
 611   0.0000       2.743269        74.6481 
 612   0.0000       2.745646        74.7128 
 613   0.0000       2.750962        74.8575 
 614   0.0000       2.752770        74.9067 
 615   0.0000       2.767906        75.3186 
 616   0.0000       2.771606        75.4192 
 617   0.0000       2.775881        75.5356 
 618   0.0000       2.780632        75.6648 
 619   0.0000       2.784830        75.7791 
 620   0.0000       2.786410        75.8221 
 621   0.0000       2.794557        76.0438 
 622   0.0000       2.806229        76.3614 
 623   0.0000       2.807413        76.3936 
 624   0.0000       2.820194        76.7414 
 625   0.0000       2.827261        76.9337 
 626   0.0000       2.828010        76.9541 
 627   0.0000       2.838431        77.2376 
 628   0.0000       2.842028        77.3355 
 629   0.0000       2.846715        77.4631 
 630   0.0000       2.851577        77.5953 
 631   0.0000       2.854020        77.6618 
 632   0.0000       2.855931        77.7138 
 633   0.0000       2.860560        77.8398 
 634   0.0000       2.869140        78.0733 
 635   0.0000       2.874376        78.2158 
 636   0.0000       2.879293        78.3495 
 637   0.0000       2.882777        78.4443 
 638   0.0000       2.890555        78.6560 
 639   0.0000       2.895978        78.8036 
 640   0.0000       2.897809        78.8534 
 641   0.0000       2.904475        79.0348 
 642   0.0000       2.905645        79.0666 
 643   0.0000       2.909719        79.1775 
 644   0.0000       2.914043        79.2951 
 645   0.0000       2.919716        79.4495 
 646   0.0000       2.925066        79.5951 
 647   0.0000       2.927413        79.6590 
 648   0.0000       2.936282        79.9003 
 649   0.0000       2.938440        79.9590 
 650   0.0000       2.941470        80.0415 
 651   0.0000       2.946074        80.1667 
 652   0.0000       2.948812        80.2412 
 653   0.0000       2.954718        80.4020 
 654   0.0000       2.958513        80.5052 
 655   0.0000       2.967922        80.7613 
 656   0.0000       2.972139        80.8760 
 657   0.0000       2.975103        80.9567 
 658   0.0000       2.981253        81.1240 
 659   0.0000       2.981693        81.1360 
 660   0.0000       2.986920        81.2782 
 661   0.0000       2.990077        81.3641 
 662   0.0000       2.994223        81.4769 
 663   0.0000       2.998619        81.5966 
 664   0.0000       3.005457        81.7827 
 665   0.0000       3.010368        81.9163 
 666   0.0000       3.018572        82.1395 
 667   0.0000       3.019989        82.1781 
 668   0.0000       3.024456        82.2996 
 669   0.0000       3.029330        82.4323 
 670   0.0000       3.039643        82.7129 
 671   0.0000       3.046751        82.9063 
 672   0.0000       3.050186        82.9998 
 673   0.0000       3.053881        83.1003 
 674   0.0000       3.056134        83.1616 
 675   0.0000       3.060001        83.2669 
 676   0.0000       3.064180        83.3806 
 677   0.0000       3.068818        83.5068 
 678   0.0000       3.076709        83.7215 
 679   0.0000       3.080270        83.8184 
 680   0.0000       3.091878        84.1343 
 681   0.0000       3.094670        84.2102 
 682   0.0000       3.096030        84.2473 
 683   0.0000       3.103405        84.4479 
 684   0.0000       3.111646        84.6722 
 685   0.0000       3.118616        84.8618 
 686   0.0000       3.124734        85.0283 
 687   0.0000       3.127949        85.1158 
 688   0.0000       3.138355        85.3990 
 689   0.0000       3.148838        85.6843 
 690   0.0000       3.153110        85.8005 
 691   0.0000       3.160124        85.9913 
 692   0.0000       3.163185        86.0746 
 693   0.0000       3.168237        86.2121 
 694   0.0000       3.173471        86.3545 
 695   0.0000       3.177092        86.4531 
 696   0.0000       3.182229        86.5929 
 697   0.0000       3.187343        86.7320 
 698   0.0000       3.190400        86.8152 
 699   0.0000       3.195622        86.9573 
 700   0.0000       3.198059        87.0236 
 701   0.0000       3.198978        87.0486 
 702   0.0000       3.208571        87.3097 
 703   0.0000       3.212654        87.4208 
[...]
  55   7.787     159.2   0.016017   0.016718  20.581385  21.007039     0.25 (  57->  72)    0.06 (  70->  75)    0.05 (  66->  74)
  56   7.847     158.0   0.011923   0.011257   5.323377   4.658775     0.16 (  67->  77)    0.08 (  65->  74)    0.07 (  58->  72)
  57   7.874     157.5   0.000076   0.000148  -2.145055  -3.267889     0.13 (  70->  74)    0.05 (  69->  86)    0.05 (  65->  75)
  58   7.897     157.0   0.006917   0.006985  -2.282542  -1.431005     0.10 (  71->  89)    0.07 (  70->  90)    0.05 (  70->  85)
  59   7.904     156.9   0.000699   0.000536  11.409209  10.479564     0.11 (  70->  74)    0.09 (  70->  75)    0.05 (  67->  77)
  60   7.960     155.8   0.042229   0.042526  -14.169087  -13.983023     0.14 (  69->  86)    0.09 (  65->  73)    0.08 (  65->  75)
  61   7.976     155.5   0.003631   0.003640   2.214856   2.145871     0.31 (  70->  90)    0.18 (  70->  89)    0.05 (  71->  92)
  62   7.980     155.4   0.005827   0.005867   4.576876   4.442777     0.11 (  66->  83)    0.10 (  66->  84)    0.08 (  67->  84)
  63   8.075     153.5   0.023717   0.021392  18.341548  18.106733     0.16 (  67->  79)    0.04 (  58->  72)    0.04 (  67->  73)
  64   8.104     153.0   0.000134   0.000138  -2.783275  -2.531159     0.40 (  49->  73)    0.13 (  49->  72)    0.13 (  52->  72)
  65   8.137     152.4   0.005133   0.004858   1.911384   1.687794     0.25 (  52->  72)    0.13 (  49->  73)    0.04 (  64->  75)
  66   8.141     152.3   0.006490   0.006753   2.608384   3.350755     0.16 (  71->  92)    0.08 (  71->  94)    0.05 (  67->  80)
  67   8.187     151.4   0.006416   0.005416   7.676061   5.364620     0.11 (  64->  75)    0.09 (  58->  72)    0.06 (  51->  72)
  68   8.193     151.3   0.004780   0.004299   1.311309   1.356939     0.24 (  69->  91)    0.16 (  69->  90)    0.14 (  69->  93)
  69   8.221     150.8   0.036255   0.034673  23.080561  22.752959     0.06 (  70->  84)    0.06 (  67->  80)    0.05 (  69->  75)
  70   8.231     150.6   0.038475   0.035969  12.211304  11.923809     0.09 (  69->  74)    0.09 (  69->  75)    0.07 (  67->  75)
  71   8.263     150.0   0.097870   0.095765  -51.307854  -51.841266     0.09 (  56->  73)    0.08 (  69->  75)    0.08 (  65->  77)
  72   8.282     149.7   0.012275   0.013322  43.539066  46.187213     0.15 (  68->  91)    0.13 (  68->  93)    0.08 (  69->  88)
  73   8.298     149.4   0.015075   0.014881  -20.914663  -20.527069     0.12 (  68->  88)    0.12 (  68->  90)    0.07 (  68->  87)
  74   8.302     149.3   0.079291   0.074973  -38.322689  -37.897469     0.10 (  62->  76)    0.07 (  63->  76)    0.06 (  60->  73)
  75   8.322     149.0   0.034944   0.034835  21.709005  20.944693     0.13 (  70->  89)    0.05 (  71->  89)    0.05 (  71->  94)
  76   8.346     148.6   0.001756   0.001657  -9.886080  -9.655593     0.11 (  53->  72)    0.08 (  47->  72)    0.05 (  59->  74)
  77   8.349     148.5   0.035179   0.033345   2.550264   3.034063     0.22 (  69->  86)    0.17 (  62->  76)    0.12 (  63->  76)
  78   8.375     148.0   0.020590   0.019946   3.342325   1.993275     0.12 (  67->  74)    0.10 (  66->  75)    0.06 (  67->  79)
  79   8.432     147.0   0.012495   0.011700  -3.627561  -5.107279     0.10 (  71->  91)    0.08 (  71->  93)    0.07 (  71->  92)
  80   8.440     146.9   0.007399   0.007344  -3.095763  -3.039197     0.72 (  71->  76)    0.03 (  71->  93)    0.03 (  66->  76)
  81   8.453     146.7   0.004803   0.005245  -15.473809  -16.489683     0.11 (  53->  72)    0.06 (  58->  72)    0.05 (  64->  74)
  82   8.478     146.2   0.023011   0.021458   9.737977   9.826726     0.07 (  66->  79)    0.06 (  67->  82)    0.05 (  71->  76)
  83   8.487     146.1   0.032100   0.030849  -11.241703  -15.173940     0.07 (  67->  89)    0.07 (  70->  91)    0.07 (  71->  94)
  84   8.494     146.0   0.028987   0.025937   4.617163   4.889390     0.18 (  68->  86)    0.06 (  47->  72)    0.04 (  53->  72)
  85   8.519     145.5   0.059126   0.054758  -15.641084  -13.112618     0.30 (  68->  75)    0.23 (  68->  74)    0.07 (  68->  86)
  86   8.524     145.4   0.095561   0.090251  -15.616603  -12.858378     0.26 (  68->  75)    0.15 (  68->  86)    0.12 (  68->  74)
  87   8.563     144.8   0.019554   0.018138  29.642718  29.578483     0.06 (  65->  79)    0.06 (  64->  73)    0.05 (  67->  90)
  88   8.587     144.4   0.009783   0.008623  -0.736263  -3.420814     0.16 (  71->  96)    0.09 (  70->  92)    0.06 (  67->  91)
  89   8.611     144.0   0.192531   0.176807  -24.377591  -21.055097     0.11 (  65->  79)    0.05 (  64->  73)    0.04 (  66->  77)
  90   8.656     143.2   0.015563   0.014584  27.717002  24.856096     0.08 (  69->  83)    0.06 (  69->  90)    0.06 (  69->  84)
  91   8.661     143.2   0.074969   0.071131  13.034700  13.934531     0.08 (  55->  73)    0.05 (  59->  77)    0.04 (  66->  82)
  92   8.668     143.0   0.004581   0.004090  -17.471157  -16.379479     0.16 (  63->  76)    0.12 (  63->  72)    0.08 (  62->  72)
  93   8.672     143.0   0.221628   0.211249  -92.681645  -90.687726     0.13 (  65->  79)    0.06 (  65->  77)    0.05 (  67->  82)
  94   8.682     142.8   0.034767   0.031120  63.994480  59.941358     0.09 (  55->  73)    0.08 (  62->  72)    0.05 (  55->  74)
  95   8.709     142.4   0.018399   0.015728   8.625344   7.804739     0.13 (  59->  77)    0.09 (  51->  72)    0.08 (  62->  76)
  96   8.715     142.3   0.015588   0.013187  -18.342042  -18.135903     0.17 (  65->  79)    0.09 (  63->  72)    0.09 (  51->  72)
  97   8.743     141.8   0.004154   0.003279  -8.095560  -7.497716     0.12 (  63->  76)    0.12 (  55->  73)    0.09 (  59->  77)
  98   8.767     141.4   0.000712   0.000621  -2.952296  -2.249775     0.06 (  71->  99)    0.04 (  69->  98)    0.04 (  66->  78)
  99   8.772     141.3   0.015333   0.013247   7.739182   6.635094     0.09 (  70->  94)    0.07 (  64->  73)    0.06 (  70->  93)
 100   8.780     141.2   0.031479   0.029102  -30.675320  -29.764348     0.14 (  70->  76)    0.06 (  70->  93)    0.05 (  64->  73)
 101   8.804     140.8   0.003944   0.004243  -1.495917  -1.670533     0.67 (  70->  76)    0.02 (  69->  76)    0.02 (  71->  76)
 102   8.810     140.7   0.002232   0.001905  -1.923554  -1.811643     0.34 (  54->  73)    0.21 (  54->  74)    0.08 (  54->  75)
 103   8.815     140.6   0.046002   0.043177  18.298363  19.622070     0.04 (  70->  94)    0.04 (  65->  80)    0.04 (  71->  97)
 104   8.858     140.0   0.011693   0.010601  -27.142182  -25.137514     0.06 (  65->  80)    0.05 (  70->  94)    0.04 (  71->  93)
 105   8.906     139.2   0.002843   0.002532   6.288142   6.271743     0.11 (  57->  75)    0.09 (  61->  74)    0.09 (  61->  75)
 106   8.923     138.9   0.005128   0.005203   7.574037   7.168316     0.09 (  62->  72)    0.07 (  69->  77)    0.06 (  63->  72)
 107   8.967     138.3   0.021613   0.020042   5.244379   4.312070     0.10 (  65->  80)    0.09 (  70->  93)    0.09 (  71->  94)
 108   8.985     138.0   0.007110   0.008446  -6.418080  -6.605118     0.05 (  70->  96)    0.05 (  67->  83)    0.03 (  66->  86)
 109   9.003     137.7   0.003386   0.002802  -6.604314  -5.894633     0.12 (  67->  78)    0.11 (  66->  78)    0.09 (  69->  98)
 110   9.044     137.1   0.026761   0.025006  -3.030664  -2.576635     0.17 (  69->  77)    0.10 (  66->  77)    0.05 (  66->  79)
 111   9.068     136.7   0.035311   0.031229  41.125888  38.260171     0.07 (  69->  77)    0.05 (  67->  82)    0.04 (  57->  75)
 112   9.080     136.5   0.006583   0.006493  -0.080441  -0.360796     0.45 (  71->  78)    0.05 (  66->  83)    0.02 (  71->  81)
 113   9.108     136.1   0.003687   0.002978  -2.820099  -1.811874     0.08 (  70->  94)    0.06 (  67->  83)    0.04 (  71->  78)
 114   9.127     135.8   0.009093   0.007734   5.611197   6.418345     0.06 (  67->  86)    0.04 (  70->  94)    0.03 (  61->  74)
 115   9.131     135.8   0.000567   0.000948  -7.004103  -7.108577     0.07 (  69-> 100)    0.06 (  69->  99)    0.04 (  69->  91)
 116   9.166     135.3   0.001008   0.001017   1.116965   0.435686     0.24 (  71->  78)    0.04 (  69->  78)    0.04 (  66->  78)
 117   9.175     135.1   0.005551   0.004645   7.292887   7.285880     0.08 (  66->  86)    0.07 (  67->  86)    0.07 (  69->  77)
 118   9.203     134.7   0.000648   0.000525   0.152285   0.330734     0.08 (  59->  77)    0.07 (  69->  77)    0.06 (  52->  75)
 119   9.210     134.6   0.001798   0.001025   0.091061  -0.083934     0.14 (  70->  99)    0.10 (  70->  96)    0.08 (  70->  97)
 120   9.213     134.6   0.006463   0.005316  -0.320844  -0.643479     0.14 (  69->  79)    0.08 (  62->  72)    0.06 (  63->  72)
 121   9.239     134.2   0.003840   0.003294  -4.129008  -3.262357     0.11 (  57->  77)    0.06 (  64->  77)    0.04 (  57->  75)
 122   9.260     133.9   0.001788   0.001476  -3.543743  -2.939458     0.13 (  61->  75)    0.10 (  61->  73)    0.07 (  48->  73)
 123   9.270     133.7   0.000538   0.000502   3.191146   2.916141     0.27 (  57->  77)    0.07 (  53->  75)    0.07 (  53->  77)
 124   9.296     133.4   0.002463   0.002638  -5.265459  -5.034624     0.08 (  68->  83)    0.07 (  68->  84)    0.04 (  68-> 104)
 125   9.325     133.0   0.002671   0.002549   6.243409   5.127253     0.06 (  54->  76)    0.05 (  48->  73)    0.03 (  70-> 100)
 126   9.333     132.8   0.000657   0.000596  -2.649256  -2.484276     0.10 (  54->  76)    0.07 (  48->  73)    0.04 (  54->  74)
 127   9.361     132.4   0.003981   0.003471   4.303714   3.769428     0.04 (  66->  86)    0.03 (  69->  98)    0.03 (  69->  83)
 128   9.377     132.2   0.008892   0.007731  20.670098  19.887347     0.07 (  64->  79)    0.07 (  52->  75)    0.04 (  59->  72)
 129   9.388     132.1   0.012178   0.011385   5.827541   5.001594     0.08 (  52->  75)    0.08 (  51->  75)    0.08 (  59->  79)
 130   9.398     131.9   0.000214   0.000218   0.244558   0.271069     0.38 (  55->  76)    0.36 (  54->  76)    0.07 (  63->  76)
 131   9.403     131.9   0.024463   0.022778   9.697864   9.652465     0.07 (  64->  77)    0.06 (  58->  75)    0.05 (  58->  74)
 132   9.433     131.4   0.001701   0.001322  -3.301333  -2.898963     0.05 (  64->  79)    0.05 (  65->  82)    0.05 (  71->  85)
 133   9.449     131.2   0.000959   0.000789  -0.657700  -0.622560     0.78 (  70->  78)    0.04 (  69->  78)    0.03 (  70->  81)
 134   9.467     131.0   0.016164   0.014726   7.632409   6.276068     0.17 (  67->  76)    0.12 (  66->  76)    0.12 (  55->  76)
 135   9.475     130.9   0.020577   0.019231   4.835725   4.545507     0.12 (  55->  76)    0.12 (  54->  76)    0.09 (  67->  76)
 136   9.478     130.8   0.006295   0.005740   9.830814   9.256978     0.08 (  69->  77)    0.06 (  66->  77)    0.05 (  67->  76)
 137   9.494     130.6   0.019492   0.017087  -39.319106  -37.385123     0.11 (  69->  79)    0.06 (  68->  77)    0.04 (  66->  77)
 138   9.504     130.5   0.047094   0.045331  -9.271647  -9.036248     0.44 (  68->  77)    0.06 (  68->  79)    0.03 (  68->  82)
 139   9.519     130.2   0.030558   0.027519   9.493121   9.404070     0.22 (  68->  77)    0.06 (  69->  79)    0.04 (  67->  76)
 140   9.540     130.0   0.008519   0.008141  -3.168816  -2.849523     0.10 (  71-> 102)    0.05 (  70->  98)    0.05 (  70->  97)
 141   9.548     129.9   0.018399   0.016107  17.030463  12.014204     0.11 (  56->  76)    0.03 (  65->  74)    0.03 (  64->  79)
 142   9.563     129.6   0.133070   0.122482  -61.653183  -53.778270     0.25 (  56->  76)    0.06 (  67->  76)    0.05 (  66->  76)
 143   9.579     129.4   0.019602   0.017833  -13.472869  -13.499258     0.26 (  68->  98)    0.19 (  68->  97)    0.11 (  68-> 101)
 144   9.594     129.2   0.012357   0.009028  24.253569  20.767205     0.08 (  65->  74)    0.05 (  69->  82)    0.04 (  65->  73)
 145   9.604     129.1   0.025663   0.023103   8.096693   7.351175     0.08 (  65->  74)    0.06 (  50->  73)    0.06 (  50->  74)
 146   9.614     129.0   0.011232   0.010459  18.433923  20.414555     0.03 (  62->  78)    0.03 (  70-> 100)    0.03 (  69->  97)
 147   9.618     128.9   0.006905   0.006851  -4.669911  -4.547124     0.12 (  47->  73)    0.10 (  57->  73)    0.06 (  48->  72)
 148   9.632     128.7   0.007542   0.006208  -9.909462  -9.075545     0.05 (  70-> 100)    0.03 (  69->  79)    0.03 (  67->  84)
 149   9.668     128.2   0.002090   0.003259  -0.415480  -0.508484     0.06 (  67->  85)    0.06 (  70-> 101)    0.05 (  65->  84)
 150   9.685     128.0   0.003540   0.003449  -0.536968  -0.566927     0.41 (  50->  78)    0.10 (  50->  81)    0.05 (  62->  78)
 151   9.689     128.0   0.000329   0.000222   0.959297   1.653838     0.10 (  48->  74)    0.07 (  47->  73)    0.06 (  48->  73)
 152   9.702     127.8   0.004621   0.004220  -8.405606  -8.115150     0.15 (  71->  81)    0.04 (  67->  81)    0.03 (  48->  74)
 153   9.707     127.7   0.065154   0.059902  33.729004  32.246080     0.07 (  71-> 103)    0.07 (  50->  73)    0.06 (  50->  74)
 154   9.721     127.5   0.054399   0.050173  -56.266470  -52.610418     0.11 (  60->  74)    0.08 (  50->  73)    0.07 (  50->  74)
 155   9.744     127.2   0.012526   0.010183  -23.257427  -20.737240     0.04 (  61->  82)    0.03 (  48->  74)    0.03 (  48->  73)
 156   9.752     127.1   0.009600   0.008918  11.752917  11.339197     0.13 (  68->  79)    0.12 (  68-> 100)    0.09 (  68->  99)
 157   9.753     127.1   0.024545   0.023941  16.915054  15.875857     0.03 (  61->  79)    0.03 (  61->  82)    0.03 (  64->  79)
 158   9.772     126.9   0.112105   0.102974  63.003591  58.802416     0.05 (  71->  86)    0.05 (  64->  79)    0.04 (  68->  79)
 159   9.785     126.7   0.006786   0.005923   3.197768   2.985836     0.47 (  68->  79)    0.10 (  68->  77)    0.07 (  71->  81)
 160   9.804     126.5   0.000440   0.000581  -3.742046  -4.275911     0.25 (  71->  81)    0.07 (  66->  81)    0.05 (  68->  79)
 161   9.809     126.4   0.005306   0.004949  -16.724647  -15.944666     0.11 (  71->  81)    0.10 (  44->  72)    0.05 (  42->  72)
 162   9.818     126.3   0.026894   0.022759  21.889385  19.486158     0.08 (  64->  79)    0.07 (  56->  74)    0.05 (  56->  72)
 163   9.827     126.2   0.003667   0.003273  11.557898  11.043361     0.09 (  71->  99)    0.08 (  71-> 100)    0.06 (  67->  90)
 164   9.850     125.9   0.037542   0.031316  -18.944368  -17.680301     0.07 (  65->  82)    0.06 (  71-> 100)    0.05 (  67->  90)
 165   9.858     125.8   0.006064   0.006025  -8.198313  -7.765252     0.08 (  65->  82)    0.05 (  64->  82)    0.03 (  70->  85)
 166   9.872     125.6   0.024306   0.021693  19.648077  18.429239     0.05 (  45->  73)    0.03 (  59->  73)    0.03 (  48->  73)
 167   9.899     125.3   0.010402   0.008920  21.747274  20.153628     0.04 (  58->  79)    0.04 (  63->  81)    0.03 (  51->  75)
 168   9.924     124.9   0.023843   0.020712  -11.079028  -10.397888     0.04 (  62->  81)    0.03 (  69->  80)    0.02 (  60->  83)
 169   9.943     124.7   0.000985   0.000850   8.612045   7.530301     0.04 (  59->  73)    0.04 (  69->  82)    0.03 (  58->  79)
 170   9.954     124.6   0.051272   0.047610  -2.659723  -1.537273     0.12 (  69->  82)    0.07 (  69->  79)    0.05 (  66->  82)
 171   9.964     124.4   0.007028   0.006237   5.646529   5.865453     0.07 (  58->  77)    0.04 (  70-> 102)    0.04 (  58->  73)
 172   9.984     124.2   0.006757   0.006168   5.461735   5.096790     0.11 (  59->  73)    0.10 (  49->  74)    0.05 (  49->  75)
 173   9.989     124.1   0.009095   0.008473  -2.451473  -2.460869     0.17 (  69->  80)    0.05 (  62->  81)    0.04 (  63->  81)

sTD-DFT done

Total run time:       13.232 sec

           *** ORCA-CIS/TD-DFT FINISHED WITHOUT ERROR ***


-------------------------------------------------------------------------------
                          DFT DISPERSION CORRECTION                            
                                                                               
                              DFTD3 V3.1  Rev 1                                
                              USING zero damping                               
-------------------------------------------------------------------------------
The omegaB97X-D3 functional is recognized. Fit by Chai et al.
Active option DFTDOPT                   ...         3   

molecular C6(AA) [au] = 30225.663871 


            DFT-D V3
 parameters
 s6 scaling factor         :     1.0000 
 rs6 scaling factor        :     1.2810 
 s8 scaling factor         :     1.0000 
 rs8 scaling factor        :     1.0940 
 Damping factor alpha6     :    14.0000 
 Damping factor alpha8     :    16.0000 
 ad hoc parameters k1-k3   :    16.0000     1.3333    -4.0000 

 Edisp/kcal,au: -12.767420007524  -0.020346176709 
 E6   /kcal   :  -5.976862593 
 E8   /kcal   :  -6.790557415 
 % E8         :  53.186606304 

-------------------------   ----------------
Dispersion correction           -0.020346177
-------------------------   ----------------


-------------------------   --------------------
FINAL SINGLE POINT ENERGY     -1464.011807578658
-------------------------   --------------------


                            ***************************************
                            *     ORCA property calculations      *
                            ***************************************

                                    ---------------------
                                    Active property flags
                                    ---------------------
   (+) Dipole Moment
   (+) Quadrupole Moment


------------------------------------------------------------------------------
                       ORCA ELECTRIC PROPERTIES CALCULATION
------------------------------------------------------------------------------

Dipole Moment Calculation                       ... on
Quadrupole Moment Calculation                   ... on
Polarizability Calculation                      ... off
GBWName                                         ... total_job2.gbw
Electron density file                           ... total_job2.scfp.tmp

-------------
DIPOLE MOMENT
-------------
                                X             Y             Z
Electronic contribution:      6.44281      -0.59462      -3.96528
Nuclear contribution   :     -5.89689       1.57599       5.70060
                        -----------------------------------------
Total Dipole Moment    :      0.54593       0.98138       1.73532
                        -----------------------------------------
Magnitude (a.u.)       :      2.06699
Magnitude (Debye)      :      5.25388


------------------------
QUADRUPOLE MOMENT (A.U.)
------------------------

                XX           YY           ZZ           XY           XZ           YZ
  NUC     21333.06153   1619.37586   1095.17359  -1815.71689   -866.22430   1075.84685
  EL     -21401.62193  -1748.40847  -1233.30446   1802.84522    856.39580  -1068.34139
  TOT       -68.56041   -129.03262   -138.13087    -12.87167     -9.82850      7.50546

--------------------------------------------------------------------------
[[11382,1],2]: A high-performance Open MPI point-to-point messaging module
was unable to find any relevant network interfaces:

Module: OpenFabrics (openib)
  Host: cx1-103-6-2

Another transport will be used instead, although this may result in
lower performance.
--------------------------------------------------------------------------

Timings for individual modules:

Sum of individual times         ...      114.431 sec (=   1.907 min)
GTO integral calculation        ...        4.686 sec (=   0.078 min)   4.1 %
SCF iterations                  ...       95.152 sec (=   1.586 min)  83.2 %
CIS module                      ...       14.593 sec (=   0.243 min)  12.8 %



                             ****ORCA TERMINATED NORMALLY****
TOTAL RUN TIME: 0 days 0 hours 7 minutes 34 seconds 145 msec
