
                                 *****************
                                 * O   R   C   A *
                                 *****************

           --- An Ab Initio, DFT and Semiempirical electronic structure package ---

                  #######################################################
                  #                        -***-                        #
                  #  Department of molecular theory and spectroscopy    #
                  #              Directorship: Frank Neese              #
                  # Max Planck Institute for Chemical Energy Conversion #
                  #                  D-45470 Muelheim/Ruhr              #
                  #                       Germany                       #
                  #                                                     #
                  #                  All rights reserved                #
                  #                        -***-                        #
                  #######################################################


                         Program Version 4.0.0 -  RELEASE  -


 With contributions from (in alphabetic order):
   Daniel Aravena         : Magnetic Properties
   Michael Atanasov       : Ab Initio Ligand Field Theory
   Ute Becker             : Parallelization
   Martin Brehm           : Molecular dynamics
   Dmytro Bykov           : SCF Hessian
   Vijay G. Chilkuri      : MRCI spin determinant printing
   Dipayan Datta          : RHF DLPNO-CCSD density
   Achintya Kumar Dutta   : EOM-CC, STEOM-CC
   Dmitry Ganyushin       : Spin-Orbit,Spin-Spin,Magnetic field MRCI
   Yang Guo               : DLPNO-NEVPT2, CIM, IAO-localization
   Andreas Hansen         : Spin unrestricted coupled pair/coupled cluster methods
   Lee Huntington         : MR-EOM, pCC
   Robert Izsak           : Overlap fitted RIJCOSX, COSX-SCS-MP3, EOM
   Christian Kollmar      : KDIIS, OOCD, Brueckner-CCSD(T), CCSD density
   Simone Kossmann        : Meta GGA functionals, TD-DFT gradient, OOMP2, MP2 Hessian
   Martin Krupicka        : AUTO-CI
   Dagmar Lenk            : GEPOL surface
   Dimitrios Liakos       : Extrapolation schemes; parallel MDCI
   Dimitrios Manganas     : ROCIS; embedding schemes
   Dimitrios Pantazis     : SARC Basis sets
   Taras Petrenko         : DFT Hessian,TD-DFT gradient, ASA, ECA, R-Raman, ABS, FL, XAS/XES, NRVS
   Peter Pinski           : DLPNO-MP2
   Christoph Reimann      : Effective Core Potentials
   Marius Retegan         : Local ZFS, SOC
   Christoph Riplinger    : Optimizer, TS searches, QM/MM, DLPNO-CCSD(T), (RO)-DLPNO pert. Triples
   Tobias Risthaus        : Range-separated hybrids, TD-DFT gradient, RPA, STAB
   Michael Roemelt        : Restricted open shell CIS
   Masaaki Saitow         : Open-shell DLPNO
   Barbara Sandhoefer     : DKH picture change effects
   Kantharuban Sivalingam : CASSCF convergence, NEVPT2, FIC-MRCI
   Georgi Stoychev        : AutoAux
   Boris Wezisla          : Elementary symmetry handling
   Frank Wennmohs         : Technical directorship


 We gratefully acknowledge several colleagues who have allowed us to
 interface, adapt or use parts of their codes:
   Stefan Grimme, W. Hujo, H. Kruse,             : VdW corrections, initial TS optimization,
                  C. Bannwarth                     DFT functionals, gCP, sTDA/sTD-DF
   Ed Valeev                                     : LibInt (2-el integral package), F12 methods
   Garnet Chan, S. Sharma, J. Yang, R. Olivares  : DMRG
   Ulf Ekstrom                                   : XCFun DFT Library
   Mihaly Kallay                                 : mrcc  (arbitrary order and MRCC methods)
   Jiri Pittner, Ondrej Demel                    : Mk-CCSD
   Frank Weinhold                                : gennbo (NPA and NBO analysis)
   Christopher J. Cramer and Donald G. Truhlar   : smd solvation model


 Your calculation uses the libint2 library for the computation of 2-el integrals
 For citations please refer to: http://libint.valeyev.net

 This ORCA versions uses:
   CBLAS   interface :  Fast vector & matrix operations
   LAPACKE interface :  Fast linear algebra routines
   SCALAPACK package :  Parallel linear algebra routines


Your calculation utilizes the atom-pairwise dispersion correction
with the zero-damping scheme (D30)
Cite in your paper:
S.Grimme, J.Antony, S.Ehrlich and H.Krieg, J.Chem.Phys., 132, (2010), 154104 
   

XCFun DFT library Copyright 2009-2010 Ulf Ekstrom and contributors.
See http://admol.org/xcfun for more information. This is free soft-
ware; see the source code for copying conditions. There is ABSOLUTELY
NO WARRANTY; not even for MERCHANTABILITY or FITNESS FOR A PARTICULAR
PURPOSE. For details see the documentation. Scientific users of this 
library should cite U. Ekstrom, L. Visscher, R. Bast, A. J. Thorvald-
sen and K. Ruud; J.Chem.Theor.Comp. 2010, DOI: 10.1021/ct100117s
XCFun Version 0.99 
Your calculation utilizes the basis: def2-TZVP
   F. Weigend and R. Ahlrichs, Phys. Chem. Chem. Phys. 7, 3297 (2005).

Your calculation utilizes the auxiliary basis: def2/J
   F. Weigend, Phys. Chem. Chem. Phys. 8, 1057 (2006).

================================================================================
                                        WARNINGS
                       Please study these warnings very carefully!
================================================================================

Warning: TCutStore was < 0. Adjusted to Thresh (uncritical)
INFO   : Checking CIS options ...

WARNING: CIS/ROCIS methods need fully converged wavefunctions
  ===> : Setting SCFConvForced true
         You can overwrite this default with %scf ConvForced false 


INFO   : the flag for use of LIBINT has been found!

Your calculation utilizes the atom-pairwise dispersion correction
with the zero-damping scheme (D30)
Cite in your paper:
S.Grimme, J.Antony, S.Ehrlich and H.Krieg, J.Chem.Phys., 132, (2010), 154104 
   

XCFun DFT library Copyright 2009-2010 Ulf Ekstrom and contributors.
See http://admol.org/xcfun for more information. This is free soft-
ware; see the source code for copying conditions. There is ABSOLUTELY
NO WARRANTY; not even for MERCHANTABILITY or FITNESS FOR A PARTICULAR
PURPOSE. For details see the documentation. Scientific users of this 
library should cite U. Ekstrom, L. Visscher, R. Bast, A. J. Thorvald-
sen and K. Ruud; J.Chem.Theor.Comp. 2010, DOI: 10.1021/ct100117s
XCFun Version 0.99 
Your calculation utilizes the basis: def2-TZVP
   F. Weigend and R. Ahlrichs, Phys. Chem. Chem. Phys. 7, 3297 (2005).

Your calculation utilizes the auxiliary basis: def2/J
   F. Weigend, Phys. Chem. Chem. Phys. 8, 1057 (2006).

================================================================================
                                        WARNINGS
                       Please study these warnings very carefully!
================================================================================

INFO   : Checking CIS options ...

INFO   : the flag for use of LIBINT has been found!

================================================================================
                                       INPUT FILE
================================================================================
NAME = total.inp
|  1> # 
|  2> !wB97X-D3 def2-TZVP def2/J RIJCOSX Grid5 FinalGrid6 TightSCF
|  3> %pal 
|  4>  nprocs 24
|  5> end
|  6> %tddft
|  7>   Mode sTDDFT
|  8>   nroots 2
|  9>   Ethresh 10.0
| 10>   maxcore 5000
| 11>   triplets true
| 12> end
| 13> * xyz 0 1 
| 14> C -4.32744564 2.02714822 -2.71862287
| 15> C -3.91599245 1.12335315 -1.74250312
| 16> C -4.87887837 0.31813315 -1.10467227
| 17> C -6.24345687 0.47012901 -1.47953224
| 18> C -6.65993854 1.37514080 -2.46782897
| 19> C -5.68004115 2.15060069 -3.08226353
| 20> C -4.84731158 -0.68794962 -0.05429034
| 21> C -6.20376915 -1.07488797 0.15993357
| 22> N -7.02000233 -0.38276959 -0.71491916
| 23> C -6.59204159 -2.00183803 1.13832803
| 24> C -5.58926513 -2.54599206 1.93808875
| 25> C -4.24887837 -2.18502802 1.75401215
| 26> C -3.83946477 -1.27597808 0.75923215
| 27> H -3.49234018 -2.64290769 2.38724528
| 28> H -8.02835365 -0.46247569 -0.76205870
| 29> H -5.84585254 -3.26228047 2.71326181
| 30> H -2.86433448 1.04267548 -1.48367138
| 31> H -7.70827764 1.46928931 -2.73819948
| 32> H -5.96432108 2.86297730 -3.85223957
| 33> H -3.58796233 2.64996899 -3.21453030
| 34> S 2.65591877 -0.15175850 0.02559012
| 35> C 1.39483391 -0.62533669 1.17801057
| 36> N 1.86076555 -0.87213378 2.39686969
| 37> N 3.21112498 -0.71050298 2.50819195
| 38> C 3.79191864 -0.33693476 1.37138745
| 39> C 0.00157341 -0.72664172 0.81087518
| 40> N -0.45794931 -0.48363004 -0.40995030
| 41> N -1.81152575 -0.64353394 -0.51975967
| 42> C -2.40670398 -1.00289033 0.60749372
| 43> S -1.26027257 -1.19431144 1.95847616
| 44> S 5.80961326 0.40037745 -0.39172052
| 45> C 7.53041010 0.51932247 0.09048981
| 46> S 7.82078259 0.11845269 1.81050189
| 47> C 6.14013919 -0.21983378 2.20466340
| 48> C 5.21123035 -0.09688957 1.21582931
| 49> C 8.52025087 0.87887070 -0.76535288
| 50> S 10.23808655 0.99730997 -0.28267389
| 51> C 10.82762460 1.49113723 -1.88104070
| 52> C 9.92263726 1.61749423 -2.87006746
| 53> S 8.22572134 1.27851181 -2.48277359
| 54> H 5.88310938 -0.51595522 3.21645459
| 55> H 10.17422776 1.91315943 -3.88281086
| 56> H -7.63479359 -2.27515386 1.27286529
| 57> H 11.88920451 1.67356176 -2.00801910
| 58> *
| 59> $new_job
| 60> # 
| 61> !wB97X-D3 def2-TZVP def2/J RIJCOSX Grid5 FinalGrid6 TightSCF
| 62> %pal 
| 63>  nprocs 24
| 64> end
| 65> %elprop
| 66>    dipole     true
| 67>    quadrupole true
| 68> end
| 69> %tddft
| 70>   Mode sTDDFT
| 71>   nroots 2
| 72>   Ethresh 10.0
| 73>   maxcore 5000
| 74> end
| 75> * xyz 0 1 
| 76> C -4.32744564 2.02714822 -2.71862287
| 77> C -3.91599245 1.12335315 -1.74250312
| 78> C -4.87887837 0.31813315 -1.10467227
| 79> C -6.24345687 0.47012901 -1.47953224
| 80> C -6.65993854 1.37514080 -2.46782897
| 81> C -5.68004115 2.15060069 -3.08226353
| 82> C -4.84731158 -0.68794962 -0.05429034
| 83> C -6.20376915 -1.07488797 0.15993357
| 84> N -7.02000233 -0.38276959 -0.71491916
| 85> C -6.59204159 -2.00183803 1.13832803
| 86> C -5.58926513 -2.54599206 1.93808875
| 87> C -4.24887837 -2.18502802 1.75401215
| 88> C -3.83946477 -1.27597808 0.75923215
| 89> H -3.49234018 -2.64290769 2.38724528
| 90> H -8.02835365 -0.46247569 -0.76205870
| 91> H -5.84585254 -3.26228047 2.71326181
| 92> H -2.86433448 1.04267548 -1.48367138
| 93> H -7.70827764 1.46928931 -2.73819948
| 94> H -5.96432108 2.86297730 -3.85223957
| 95> H -3.58796233 2.64996899 -3.21453030
| 96> S 2.65591877 -0.15175850 0.02559012
| 97> C 1.39483391 -0.62533669 1.17801057
| 98> N 1.86076555 -0.87213378 2.39686969
| 99> N 3.21112498 -0.71050298 2.50819195
|100> C 3.79191864 -0.33693476 1.37138745
|101> C 0.00157341 -0.72664172 0.81087518
|102> N -0.45794931 -0.48363004 -0.40995030
|103> N -1.81152575 -0.64353394 -0.51975967
|104> C -2.40670398 -1.00289033 0.60749372
|105> S -1.26027257 -1.19431144 1.95847616
|106> S 5.80961326 0.40037745 -0.39172052
|107> C 7.53041010 0.51932247 0.09048981
|108> S 7.82078259 0.11845269 1.81050189
|109> C 6.14013919 -0.21983378 2.20466340
|110> C 5.21123035 -0.09688957 1.21582931
|111> C 8.52025087 0.87887070 -0.76535288
|112> S 10.23808655 0.99730997 -0.28267389
|113> C 10.82762460 1.49113723 -1.88104070
|114> C 9.92263726 1.61749423 -2.87006746
|115> S 8.22572134 1.27851181 -2.48277359
|116> H 5.88310938 -0.51595522 3.21645459
|117> H 10.17422776 1.91315943 -3.88281086
|118> H -7.63479359 -2.27515386 1.27286529
|119> H 11.88920451 1.67356176 -2.00801910
|120> *
|121> 
|122>                          ****END OF INPUT****
================================================================================


                 $$$$$$$$$$$$$$$$$$$$$$$$$$$$$$$$$$$$$$$$$$$$$$ 
                 $ THERE ARE  2 JOBS TO BE PROCESSED THIS RUN $
                 $$$$$$$$$$$$$$$$$$$$$$$$$$$$$$$$$$$$$$$$$$$$$$ 




                 $$$$$$$$$$$$$$$$  JOB NUMBER  1 $$$$$$$$$$$$$$


                       ****************************
                       * Single Point Calculation *
                       ****************************

---------------------------------
CARTESIAN COORDINATES (ANGSTROEM)
---------------------------------
  C     -4.327446    2.027148   -2.718623
  C     -3.915992    1.123353   -1.742503
  C     -4.878878    0.318133   -1.104672
  C     -6.243457    0.470129   -1.479532
  C     -6.659939    1.375141   -2.467829
  C     -5.680041    2.150601   -3.082264
  C     -4.847312   -0.687950   -0.054290
  C     -6.203769   -1.074888    0.159934
  N     -7.020002   -0.382770   -0.714919
  C     -6.592042   -2.001838    1.138328
  C     -5.589265   -2.545992    1.938089
  C     -4.248878   -2.185028    1.754012
  C     -3.839465   -1.275978    0.759232
  H     -3.492340   -2.642908    2.387245
  H     -8.028354   -0.462476   -0.762059
  H     -5.845853   -3.262280    2.713262
  H     -2.864334    1.042675   -1.483671
  H     -7.708278    1.469289   -2.738199
  H     -5.964321    2.862977   -3.852240
  H     -3.587962    2.649969   -3.214530
  S      2.655919   -0.151758    0.025590
  C      1.394834   -0.625337    1.178011
  N      1.860766   -0.872134    2.396870
  N      3.211125   -0.710503    2.508192
  C      3.791919   -0.336935    1.371387
  C      0.001573   -0.726642    0.810875
  N     -0.457949   -0.483630   -0.409950
  N     -1.811526   -0.643534   -0.519760
  C     -2.406704   -1.002890    0.607494
  S     -1.260273   -1.194311    1.958476
  S      5.809613    0.400377   -0.391721
  C      7.530410    0.519322    0.090490
  S      7.820783    0.118453    1.810502
  C      6.140139   -0.219834    2.204663
  C      5.211230   -0.096890    1.215829
  C      8.520251    0.878871   -0.765353
  S     10.238087    0.997310   -0.282674
  C     10.827625    1.491137   -1.881041
  C      9.922637    1.617494   -2.870067
  S      8.225721    1.278512   -2.482774
  H      5.883109   -0.515955    3.216455
  H     10.174228    1.913159   -3.882811
  H     -7.634794   -2.275154    1.272865
  H     11.889205    1.673562   -2.008019

----------------------------
CARTESIAN COORDINATES (A.U.)
----------------------------
  NO LB      ZA    FRAG     MASS         X           Y           Z
   0 C     6.0000    0    12.011   -8.177687    3.830755   -5.137453
   1 C     6.0000    0    12.011   -7.400153    2.122830   -3.292854
   2 C     6.0000    0    12.011   -9.219744    0.601185   -2.087528
   3 C     6.0000    0    12.011  -11.798424    0.888415   -2.795911
   4 C     6.0000    0    12.011  -12.585460    2.598640   -4.663521
   5 C     6.0000    0    12.011  -10.733722    4.064046   -5.824634
   6 C     6.0000    0    12.011   -9.160091   -1.300036   -0.102594
   7 C     6.0000    0    12.011  -11.723425   -2.031244    0.302231
   8 N     7.0000    0    14.007  -13.265882   -0.723330   -1.351001
   9 C     6.0000    0    12.011  -12.457153   -3.782926    2.151128
  10 C     6.0000    0    12.011  -10.562180   -4.811228    3.662457
  11 C     6.0000    0    12.011   -8.029216   -4.129105    3.314603
  12 C     6.0000    0    12.011   -7.255537   -2.411249    1.434741
  13 H     1.0000    0     1.008   -6.599567   -4.994372    4.511240
  14 H     1.0000    0     1.008  -15.171390   -0.873952   -1.440082
  15 H     1.0000    0     1.008  -11.047060   -6.164817    5.127322
  16 H     1.0000    0     1.008   -5.412808    1.970371   -2.803733
  17 H     1.0000    0     1.008  -14.566534    2.776554   -5.174447
  18 H     1.0000    0     1.008  -11.270933    5.410243   -7.279678
  19 H     1.0000    0     1.008   -6.780266    5.007716   -6.074582
  20 S    16.0000    0    32.060    5.018959   -0.286782    0.048358
  21 C     6.0000    0    12.011    2.635854   -1.181715    2.226117
  22 N     7.0000    0    14.007    3.516337   -1.648094    4.529427
  23 N     7.0000    0    14.007    6.068147   -1.342656    4.739796
  24 C     6.0000    0    12.011    7.165688   -0.636714    2.591547
  25 C     6.0000    0    12.011    0.002973   -1.373154    1.532332
  26 N     7.0000    0    14.007   -0.865399   -0.913928   -0.774694
  27 N     7.0000    0    14.007   -3.423288   -1.216103   -0.982203
  28 C     6.0000    0    12.011   -4.548011   -1.895188    1.147997
  29 S    16.0000    0    32.060   -2.381570   -2.256922    3.700984
  30 S    16.0000    0    32.060   10.978578    0.756604   -0.740245
  31 C     6.0000    0    12.011   14.230413    0.981377    0.171001
  32 S    16.0000    0    32.060   14.779137    0.223843    3.421353
  33 C     6.0000    0    12.011   11.603181   -0.415426    4.166210
  34 C     6.0000    0    12.011    9.847798   -0.183095    2.297584
  35 C     6.0000    0    12.011   16.100941    1.660825   -1.446307
  36 S    16.0000    0    32.060   19.347180    1.884643   -0.534176
  37 C     6.0000    0    12.011   20.461245    2.817841   -3.554652
  38 C     6.0000    0    12.011   18.751067    3.056621   -5.423641
  39 S    16.0000    0    32.060   15.544361    2.416037   -4.691762
  40 H     1.0000    0     1.008   11.117466   -0.975014    6.078218
  41 H     1.0000    0     1.008   19.226504    3.615347   -7.337449
  42 H     1.0000    0     1.008  -14.427669   -4.299418    2.405367
  43 H     1.0000    0     1.008   22.467340    3.162573   -3.794606

--------------------------------
INTERNAL COORDINATES (ANGSTROEM)
--------------------------------
 C      0   0   0     0.000000000000     0.00000000     0.00000000
 C      1   0   0     1.392461497657     0.00000000     0.00000000
 C      2   1   0     1.407961908770   119.12322226     0.00000000
 C      3   2   1     1.423269904561   118.37848609   359.51265171
 C      4   3   2     1.403293892246   122.60968179     0.84884749
 C      5   4   3     1.392503775381   117.45490175   359.46026074
 C      3   2   1     1.454819989274   135.05144564   181.49230091
 C      7   3   2     1.426741150148   105.98170336   177.38210418
 N      8   7   3     1.382256038242   109.30460507     1.27608506
 C      8   7   3     1.402586047541   123.17261089   182.30729140
 C     10   8   7     1.393298764210   117.34065030     0.77454120
 C     11  10   8     1.400291362261   120.85003112   359.34591988
 C     12  11  10     1.408395731916   122.51307286   359.40845986
 H     12  11  10     1.087652528180   118.73505752   180.96515388
 H      9   8   7     1.012594481100   125.31589675   180.90038827
 H     11  10   8     1.086185738362   119.81366988   179.55352812
 H      2   1   3     1.086042007444   120.09362379   179.77409824
 H      5   4   3     1.086728587644   121.15761603   179.76793746
 H      6   5   4     1.086811214172   119.57510450   180.01635495
 H      1   2   3     1.086584307102   119.39800362   180.06948561
 S     17   2   1     5.846173000527   172.33288115   214.03081833
 C     21  17   2     1.772761749289    63.30085667   305.24531960
 N     22  21  17     1.328013046319   113.37218129   196.95191307
 N     23  22  21     1.364546720076   113.58221431     0.00000000
 C     24  23  22     1.330112386872   113.30664741     0.00000000
 C     22  21  17     1.444377348394   122.66267323    16.89571502
 N     26  22  21     1.326887583569   123.71620110     0.32070003
 N     27  26  22     1.367405036519   113.28362775   180.02487174
 C     28  27  26     1.324414718193   114.09333301     0.28424531
 S     26  22  21     1.768603475498   122.80859819   180.17665037
 S     25  24  23     2.779077290841   159.02785297   179.96620631
 C     31  25  24     1.791037823357   122.98146177     0.02747765
 S     32  31  25     1.789819633039   113.56149261     0.00000000
 C     33  32  31     1.759080234018    95.93518283     0.00000000
 C     34  33  32     1.362270079444   118.13003832     0.00000000
 C     32  31  25     1.357028514688   123.27154649   180.00846778
 S     36  32  31     1.788285852862   123.23017938   179.99880511
 C     37  36  32     1.773752219005    95.42196597   180.00086640
 C     38  37  36     1.346529653964   117.68559315     0.00000000
 S     39  38  37     1.773253862919   117.69699666     0.00000000
 H     34  33  32     1.085114575802   119.19072295   180.00181432
 H     39  38  37     1.084603560950   123.74624667   180.00111589
 H     10   8   7     1.086339519101   121.22386089   180.12328824
 H     38  37  36     1.084598602492   118.53130523   180.00109637

---------------------------
INTERNAL COORDINATES (A.U.)
---------------------------
 C      0   0   0     0.000000000000     0.00000000     0.00000000
 C      1   0   0     2.631370882602     0.00000000     0.00000000
 C      2   1   0     2.660662414567   119.12322226     0.00000000
 C      3   2   1     2.689590334272   118.37848609   359.51265171
 C      4   3   2     2.651841141749   122.60968179     0.84884749
 C      5   4   3     2.631450775921   117.45490175   359.46026074
 C      3   2   1     2.749211353883   135.05144564   181.49230091
 C      7   3   2     2.696150037776   105.98170336   177.38210418
 N      8   7   3     2.612085359235   109.30460507     1.27608506
 C      8   7   3     2.650503509111   123.17261089   182.30729140
 C     10   8   7     2.632953087089   117.34065030     0.77454120
 C     11  10   8     2.646167182370   120.85003112   359.34591988
 C     12  11  10     2.661482221505   122.51307286   359.40845986
 H     12  11  10     2.055365407128   118.73505752   180.96515388
 H      9   8   7     1.913526253999   125.31589675   180.90038827
 H     11  10   8     2.052593576075   119.81366988   179.55352812
 H      2   1   3     2.052321964003   120.09362379   179.77409824
 H      5   4   3     2.053619412549   121.15761603   179.76793746
 H      6   5   4     2.053775554059   119.57510450   180.01635495
 H      1   2   3     2.053346761840   119.39800362   180.06948561
 S     17   2   1    11.047665902522   172.33288115   214.03081833
 C     21  17   2     3.350034206848    63.30085667   305.24531960
 N     22  21  17     2.509580959817   113.37218129   196.95191307
 N     23  22  21     2.578619597884   113.58221431     0.00000000
 C     24  23  22     2.513548138524   113.30664741     0.00000000
 C     22  21  17     2.729477622504   122.66267323    16.89571502
 N     26  22  21     2.507454143446   123.71620110     0.32070003
 N     27  26  22     2.584021033166   113.28362775   180.02487174
 C     28  27  26     2.502781105119   114.09333301     0.28424531
 S     26  22  21     3.342176208193   122.80859819   180.17665037
 S     25  24  23     5.251694984690   159.02785297   179.96620631
 C     31  25  24     3.384570981639   122.98146177     0.02747765
 S     32  31  25     3.382268935559   113.56149261     0.00000000
 C     33  32  31     3.324179889889    95.93518283     0.00000000
 C     34  33  32     2.574317370585   118.13003832     0.00000000
 C     32  31  25     2.564412248683   123.27154649   180.00846778
 S     36  32  31     3.379370511075   123.23017938   179.99880511
 C     37  36  32     3.351905923355    95.42196597   180.00086640
 C     38  37  36     2.544572277196   117.68559315     0.00000000
 S     39  38  37     3.350964166835   117.69699666     0.00000000
 H     34  33  32     2.050569372192   119.19072295   180.00181432
 H     39  38  37     2.049603694071   123.74624667   180.00111589
 H     10   8   7     2.052884179557   121.22386089   180.12328824
 H     38  37  36     2.049594323944   118.53130523   180.00109637

---------------------
BASIS SET INFORMATION
---------------------
There are 4 groups of distinct atoms

 Group   1 Type C   : 11s6p2d1f contracted to 5s3p2d1f pattern {62111/411/11/1}
 Group   2 Type N   : 11s6p2d1f contracted to 5s3p2d1f pattern {62111/411/11/1}
 Group   3 Type H   : 5s1p contracted to 3s1p pattern {311/1}
 Group   4 Type S   : 14s9p3d1f contracted to 5s5p2d1f pattern {73211/51111/21/1}

Atom   0C    basis set group =>   1
Atom   1C    basis set group =>   1
Atom   2C    basis set group =>   1
Atom   3C    basis set group =>   1
Atom   4C    basis set group =>   1
Atom   5C    basis set group =>   1
Atom   6C    basis set group =>   1
Atom   7C    basis set group =>   1
Atom   8N    basis set group =>   2
Atom   9C    basis set group =>   1
Atom  10C    basis set group =>   1
Atom  11C    basis set group =>   1
Atom  12C    basis set group =>   1
Atom  13H    basis set group =>   3
Atom  14H    basis set group =>   3
Atom  15H    basis set group =>   3
Atom  16H    basis set group =>   3
Atom  17H    basis set group =>   3
Atom  18H    basis set group =>   3
Atom  19H    basis set group =>   3
Atom  20S    basis set group =>   4
Atom  21C    basis set group =>   1
Atom  22N    basis set group =>   2
Atom  23N    basis set group =>   2
Atom  24C    basis set group =>   1
Atom  25C    basis set group =>   1
Atom  26N    basis set group =>   2
Atom  27N    basis set group =>   2
Atom  28C    basis set group =>   1
Atom  29S    basis set group =>   4
Atom  30S    basis set group =>   4
Atom  31C    basis set group =>   1
Atom  32S    basis set group =>   4
Atom  33C    basis set group =>   1
Atom  34C    basis set group =>   1
Atom  35C    basis set group =>   1
Atom  36S    basis set group =>   4
Atom  37C    basis set group =>   1
Atom  38C    basis set group =>   1
Atom  39S    basis set group =>   4
Atom  40H    basis set group =>   3
Atom  41H    basis set group =>   3
Atom  42H    basis set group =>   3
Atom  43H    basis set group =>   3
-------------------------------
AUXILIARY BASIS SET INFORMATION
-------------------------------
There are 4 groups of distinct atoms

 Group   1 Type C   : 12s5p4d2f1g contracted to 6s4p3d1f1g pattern {711111/2111/211/2/1}
 Group   2 Type N   : 12s5p4d2f1g contracted to 6s4p3d1f1g pattern {711111/2111/211/2/1}
 Group   3 Type H   : 5s2p1d contracted to 3s1p1d pattern {311/2/1}
 Group   4 Type S   : 14s5p5d2f1g contracted to 8s4p3d1f1g pattern {71111111/2111/311/2/1}

Atom   0C    basis set group =>   1
Atom   1C    basis set group =>   1
Atom   2C    basis set group =>   1
Atom   3C    basis set group =>   1
Atom   4C    basis set group =>   1
Atom   5C    basis set group =>   1
Atom   6C    basis set group =>   1
Atom   7C    basis set group =>   1
Atom   8N    basis set group =>   2
Atom   9C    basis set group =>   1
Atom  10C    basis set group =>   1
Atom  11C    basis set group =>   1
Atom  12C    basis set group =>   1
Atom  13H    basis set group =>   3
Atom  14H    basis set group =>   3
Atom  15H    basis set group =>   3
Atom  16H    basis set group =>   3
Atom  17H    basis set group =>   3
Atom  18H    basis set group =>   3
Atom  19H    basis set group =>   3
Atom  20S    basis set group =>   4
Atom  21C    basis set group =>   1
Atom  22N    basis set group =>   2
Atom  23N    basis set group =>   2
Atom  24C    basis set group =>   1
Atom  25C    basis set group =>   1
Atom  26N    basis set group =>   2
Atom  27N    basis set group =>   2
Atom  28C    basis set group =>   1
Atom  29S    basis set group =>   4
Atom  30S    basis set group =>   4
Atom  31C    basis set group =>   1
Atom  32S    basis set group =>   4
Atom  33C    basis set group =>   1
Atom  34C    basis set group =>   1
Atom  35C    basis set group =>   1
Atom  36S    basis set group =>   4
Atom  37C    basis set group =>   1
Atom  38C    basis set group =>   1
Atom  39S    basis set group =>   4
Atom  40H    basis set group =>   3
Atom  41H    basis set group =>   3
Atom  42H    basis set group =>   3
Atom  43H    basis set group =>   3
-------------------------
ECP PARAMETER INFORMATION
-------------------------



--------------------------------------------------------------------------
[[27433,1],2]: A high-performance Open MPI point-to-point messaging module
was unable to find any relevant network interfaces:

Module: OpenFabrics (openib)
  Host: cx1-105-14-1

Another transport will be used instead, although this may result in
lower performance.
--------------------------------------------------------------------------


           ************************************************************
           *        Program running with 24 parallel MPI-processes    *
           *              working on a common directory               *
           ************************************************************
------------------------------------------------------------------------------
                           ORCA GTO INTEGRAL CALCULATION
                           -- RI-GTO INTEGRALS CHOSEN --
------------------------------------------------------------------------------

                         BASIS SET STATISTICS AND STARTUP INFO

Gaussian basis set:
 # of primitive gaussian shells          ...  768
 # of primitive gaussian functions       ... 1708
 # of contracted shells                  ...  419
 # of contracted basis functions         ... 1125
 Highest angular momentum                ...    3
 Maximum contraction depth               ...    7
Auxiliary gaussian basis set:
 # of primitive gaussian shells          ...  898
 # of primitive gaussian functions       ... 2528
 # of contracted shells                  ...  562
 # of contracted aux-basis functions     ... 1750
 Highest angular momentum                ...    4
 Maximum contraction depth               ...    7
Ratio of auxiliary to basis functions    ...  1.56
Integral package used                  ... LIBINT
 One Electron integrals                  
   ECP integrals                         ... done
 Ordering auxiliary basis shells         ... done
 Integral threshhold             Thresh  ...  2.500e-11
 Primitive cut-off               TCut    ...  2.500e-12
 Pre-screening matrix                    ... done
 Shell pair data                         ... 
 Ordering of the shell pairs             ... done (   0.011 sec) 40378 of 87990 pairs
 Determination of significant pairs      ... done (   0.000 sec)
 Creation of shell pair data             ... done (   0.008 sec)
 Storage of shell pair data              ... done (   0.105 sec)
 Shell pair data done in (   0.124 sec)
 Computing two index integrals           ... done
 Cholesky decomposition of the V-matrix  ... done


Timings:
 Total evaluation time                   ...   5.540 sec (  0.092 min)
 One electron matrix time                ...   1.419 sec (  0.024 min) = 25.6%
 Schwartz matrix evaluation time         ...   2.550 sec (  0.042 min) = 46.0%
 Two index repulsion integral time       ...   0.838 sec (  0.014 min) = 15.1%
 Cholesky decomposition of V             ...   0.560 sec (  0.009 min) = 10.1%
 Three index repulsion integral time     ...   0.000 sec (  0.000 min) =  0.0%

--------------------------------------------------------------------------
[[27292,1],1]: A high-performance Open MPI point-to-point messaging module
was unable to find any relevant network interfaces:

Module: OpenFabrics (openib)
  Host: cx1-105-14-1

Another transport will be used instead, although this may result in
lower performance.
--------------------------------------------------------------------------


           ************************************************************
           *        Program running with 24 parallel MPI-processes    *
           *              working on a common directory               *
           ************************************************************
-------------------------------------------------------------------------------
                                 ORCA SCF
-------------------------------------------------------------------------------

------------
SCF SETTINGS
------------
Hamiltonian:
 Density Functional     Method          .... DFT(GTOs)
 Exchange Functional    Exchange        .... WB97X-D3
 Correlation Functional Correlation     .... WB97X-D3
 Gradients option       PostSCFGGA      .... off
 Hybrid DFT is turned on
   Fraction HF Exchange ScalHFX         ....  0.195728
   Scaling of DF-GGA-X  ScalDFX         ....  0.000000
   Scaling of DF-GGA-C  ScalDFC         ....  1.000000
   Scaling of DF-LDA-C  ScalLDAC        ....  1.000000
   Perturbative correction              ....  0.000000
 Long-range corrected/Screened/Range-Separated Hybrid DFT is turned on
   Amount of maximum screened exact exchange              ....  0.804272
   Range separation parameter mu (erf(mu*r12)/r12)        ....  0.250000
 RI-approximation to the Coulomb term is turned on
   Number of auxiliary basis functions  .... 1750
   RIJ-COSX (HFX calculated with COS-X)).... on


General Settings:
 Integral files         IntName         .... total
 Hartree-Fock type      HFTyp           .... RHF
 Total Charge           Charge          ....    0
 Multiplicity           Mult            ....    1
 Number of Electrons    NEL             ....  274
 Basis Dimension        Dim             .... 1125
 Nuclear Repulsion      ENuc            ....   3814.8044529515 Eh

Convergence Acceleration:
 DIIS                   CNVDIIS         .... on
   Start iteration      DIISMaxIt       ....    12
   Startup error        DIISStart       ....  0.200000
   # of expansion vecs  DIISMaxEq       ....     5
   Bias factor          DIISBfac        ....   1.050
   Max. coefficient     DIISMaxC        ....  10.000
 Newton-Raphson         CNVNR           .... off
 SOSCF                  CNVSOSCF        .... on
   Start iteration      SOSCFMaxIt      ....   150
   Startup grad/error   SOSCFStart      ....  0.003300
 Level Shifting         CNVShift        .... on
   Level shift para.    LevelShift      ....    0.2500
   Turn off err/grad.   ShiftErr        ....    0.0010
 Zerner damping         CNVZerner       .... off
 Static damping         CNVDamp         .... on
   Fraction old density DampFac         ....    0.7000
   Max. Damping (<1)    DampMax         ....    0.9800
   Min. Damping (>=0)   DampMin         ....    0.0000
   Turn off err/grad.   DampErr         ....    0.1000
 Fernandez-Rico         CNVRico         .... off

SCF Procedure:
 Maximum # iterations   MaxIter         ....   125
 SCF integral mode      SCFMode         .... Direct
   Integral package                     .... LIBINT
 Reset frequeny         DirectResetFreq ....    20
 Integral Threshold     Thresh          ....  2.500e-11 Eh
 Primitive CutOff       TCut            ....  2.500e-12 Eh

Convergence Tolerance:
 Convergence Check Mode ConvCheckMode   .... Total+1el-Energy
 Convergence forced     ConvForced      .... 1
 Energy Change          TolE            ....  1.000e-08 Eh
 1-El. energy change                    ....  1.000e-05 Eh
 Orbital Gradient       TolG            ....  1.000e-05
 Orbital Rotation angle TolX            ....  1.000e-05
 DIIS Error             TolErr          ....  5.000e-07


Diagonalization of the overlap matrix:
Smallest eigenvalue                        ... 6.231e-06
Time for diagonalization                   ...    0.433 sec
Threshold for overlap eigenvalues          ... 1.000e-08
Number of eigenvalues below threshold      ... 0
Time for construction of square roots      ...    0.452 sec
Total time needed                          ...    0.891 sec

-------------------
DFT GRID GENERATION
-------------------

General Integration Accuracy     IntAcc      ...  5.010
Radial Grid Type                 RadialGrid  ... Gauss-Chebyshev
Angular Grid (max. acc.)         AngularGrid ... Lebedev-434
Angular grid pruning method      GridPruning ... 3 (G Style)
Weight generation scheme         WeightScheme... Becke
Basis function cutoff            BFCut       ...    1.0000e-11
Integration weight cutoff        WCut        ...    1.0000e-14
Grids for H and He will be reduced by one unit

# of grid points (after initial pruning)     ... 432358 (   0.0 sec)
# of grid points (after weights+screening)   ... 385548 (   1.1 sec)
nearest neighbour list constructed           ...    0.0 sec
Grid point re-assignment to atoms done       ...    0.2 sec
Grid point division into batches done        ...    4.9 sec
Reduced shell lists constructed in    5.7 sec

Total number of grid points                  ...   385548
Total number of batches                      ...     6046
Average number of points per batch           ...       63
Average number of grid points per atom       ...     8762
Average number of shells per batch           ...   130.09 (31.05%)
Average number of basis functions per batch  ...   340.12 (30.23%)
Average number of large shells per batch     ...    89.91 (69.11%)
Average number of large basis fcns per batch ...   233.04 (68.52%)
Maximum spatial batch extension              ...  10.64, 18.43, 17.07 au
Average spatial batch extension              ...   0.05,  0.06,  0.06 au

Time for grid setup =    7.652 sec

------------------------------
INITIAL GUESS: MODEL POTENTIAL
------------------------------
Loading Hartree-Fock densities                     ... done
Calculating cut-offs                               ... done
Setting up the integral package                    ... done
Initializing the effective Hamiltonian             ... done
Starting the Coulomb interaction                   ... done (   0.4 sec)
Reading the grid                                   ... done
Mapping shells                                     ... done
Starting the XC term evaluation                    ... done (   2.0 sec)
  promolecular density results
     # of electrons  =    273.994561627
     EX              =   -297.824588409
     EC              =     -9.806053874
     EX+EC           =   -307.630642283
Transforming the Hamiltonian                       ... done (   0.2 sec)
Diagonalizing the Hamiltonian                      ... done (   0.4 sec)
Back transforming the eigenvectors                 ... done (   0.1 sec)
Now organizing SCF variables                       ... done
                      ------------------
                      INITIAL GUESS DONE (  11.1 sec)
                      ------------------
--------------------
COSX GRID GENERATION
--------------------

General Integration Accuracy     IntAcc      ...  3.340
Radial Grid Type                 RadialGrid  ... Gauss-Chebyshev
Angular Grid (max. acc.)         AngularGrid ... Lebedev-50
Angular grid pruning method      GridPruning ... 3 (G Style)
Weight generation scheme         WeightScheme... Becke
Basis function cutoff            BFCut       ...    1.0000e-11
Integration weight cutoff        WCut        ...    1.0000e-14
Grids for H and He will be reduced by one unit

# of grid points (after initial pruning)     ...  23346 (   0.0 sec)
# of grid points (after weights+screening)   ...  21611 (   0.1 sec)
nearest neighbour list constructed           ...    0.0 sec
Grid point re-assignment to atoms done       ...    0.0 sec
Grid point division into batches done        ...    0.0 sec
Reduced shell lists constructed in    0.1 sec

Total number of grid points                  ...    21611
Total number of batches                      ...      357
Average number of points per batch           ...       60
Average number of grid points per atom       ...      491
Average number of shells per batch           ...   141.50 (33.77%)
Average number of basis functions per batch  ...   374.88 (33.32%)
Average number of large shells per batch     ...    99.69 (70.45%)
Average number of large basis fcns per batch ...   263.31 (70.24%)
Maximum spatial batch extension              ...   3.95, 14.60, 13.37 au
Average spatial batch extension              ...   0.10,  0.22,  0.20 au

Overlap Fitting                  UseSFitting ... on
Constructing numerical overlap ... done (      0.1 sec)
Inverting numerical overlap    ... done (      0.2 sec)
Obtaining analytic overlap     ... done (      0.0 sec)
Final contraction and storage  ... done (      0.5 sec)


General Integration Accuracy     IntAcc      ...  3.670
Radial Grid Type                 RadialGrid  ... Gauss-Chebyshev
Angular Grid (max. acc.)         AngularGrid ... Lebedev-50
Angular grid pruning method      GridPruning ... 3 (G Style)
Weight generation scheme         WeightScheme... Becke
Basis function cutoff            BFCut       ...    1.0000e-11
Integration weight cutoff        WCut        ...    1.0000e-14
Grids for H and He will be reduced by one unit

# of grid points (after initial pruning)     ...  29078 (   0.0 sec)
# of grid points (after weights+screening)   ...  26837 (   0.1 sec)
nearest neighbour list constructed           ...    0.0 sec
Grid point re-assignment to atoms done       ...    0.0 sec
Grid point division into batches done        ...    0.0 sec
Reduced shell lists constructed in    0.1 sec

Total number of grid points                  ...    26837
Total number of batches                      ...      444
Average number of points per batch           ...       60
Average number of grid points per atom       ...      610
Average number of shells per batch           ...   142.75 (34.07%)
Average number of basis functions per batch  ...   379.15 (33.70%)
Average number of large shells per batch     ...   100.50 (70.40%)
Average number of large basis fcns per batch ...   265.20 (69.95%)
Maximum spatial batch extension              ...   3.95, 13.86, 15.06 au
Average spatial batch extension              ...   0.10,  0.19,  0.19 au

Overlap Fitting                  UseSFitting ... on
Constructing numerical overlap ... done (      0.1 sec)
Inverting numerical overlap    ... done (      0.2 sec)
Obtaining analytic overlap     ... done (      0.0 sec)
Final contraction and storage  ... done (      0.5 sec)


General Integration Accuracy     IntAcc      ...  4.010
Radial Grid Type                 RadialGrid  ... Gauss-Chebyshev
Angular Grid (max. acc.)         AngularGrid ... Lebedev-110
Angular grid pruning method      GridPruning ... 3 (G Style)
Weight generation scheme         WeightScheme... Becke
Basis function cutoff            BFCut       ...    1.0000e-11
Integration weight cutoff        WCut        ...    1.0000e-14
Grids for H and He will be reduced by one unit

# of grid points (after initial pruning)     ...  56776 (   0.0 sec)
# of grid points (after weights+screening)   ...  51841 (   0.2 sec)
nearest neighbour list constructed           ...    0.0 sec
Grid point re-assignment to atoms done       ...    0.0 sec
Grid point division into batches done        ...    0.1 sec
Reduced shell lists constructed in    0.2 sec

Total number of grid points                  ...    51841
Total number of batches                      ...      831
Average number of points per batch           ...       62
Average number of grid points per atom       ...     1178
Average number of shells per batch           ...   141.72 (33.82%)
Average number of basis functions per batch  ...   376.00 (33.42%)
Average number of large shells per batch     ...    99.78 (70.40%)
Average number of large basis fcns per batch ...   262.72 (69.87%)
Maximum spatial batch extension              ...   4.84, 19.23, 20.85 au
Average spatial batch extension              ...   0.09,  0.15,  0.15 au

Overlap Fitting                  UseSFitting ... on
Constructing numerical overlap ... done (      0.2 sec)
Inverting numerical overlap    ... done (      0.2 sec)
Obtaining analytic overlap     ... done (      0.0 sec)
Final contraction and storage  ... done (      0.5 sec)

Time for X-Grid setup             =    3.662 sec
--------------
SCF ITERATIONS
--------------
ITER       Energy         Delta-E        Max-DP      RMS-DP      [F,P]     Damp
               ***  Starting incremental Fock matrix formation  ***
  0  -3507.2592016715   0.000000000000 0.05498674  0.00057667  0.1575397 0.7000
  1  -3507.5256714925  -0.266469821054 0.04704794  0.00048576  0.0987003 0.7000
                               ***Turning on DIIS***
  2  -3507.6528218384  -0.127150345879 0.11279732  0.00109393  0.0557022 0.0000
  3  -3507.8570216912  -0.204199852813 0.03387638  0.00031175  0.0370930 0.0000
  4  -3507.8968675414  -0.039845850221 0.01132396  0.00011621  0.0081736 0.0000
  5  -3507.8988621977  -0.001994656297 0.00550377  0.00005576  0.0052471 0.0000
  6  -3507.8995764948  -0.000714297059 0.00317384  0.00003456  0.0018214 0.0000
                      *** Initiating the SOSCF procedure ***
                           *** Shutting down DIIS ***
                      *** Re-Reading the Fockian *** 
                      *** Removing any level shift *** 
ITER      Energy       Delta-E        Grad      Rot      Max-DP    RMS-DP
  7  -3507.89987397  -0.0002974798  0.002761  0.002761  0.001662  0.000020
               *** Restarting incremental Fock matrix formation ***
  8  -3507.90000563  -0.0001316515  0.001612  0.007357  0.011392  0.000101
  9  -3507.90006912  -0.0000634916  0.000668  0.007433  0.003607  0.000041
 10  -3507.90008741  -0.0000182920  0.000205  0.000550  0.003723  0.000032
 11  -3507.90009207  -0.0000046583  0.000099  0.000814  0.000261  0.000003
 12  -3507.90009300  -0.0000009311  0.000034  0.000052  0.000333  0.000004
 13  -3507.90009318  -0.0000001799  0.000029  0.000157  0.000220  0.000002
 14  -3507.90009326  -0.0000000825  0.000006  0.000029  0.000455  0.000002
 15  -3507.90009323   0.0000000291  0.000005  0.000015  0.000120  0.000001
                  ***Gradient check signals convergence***
              ***Rediagonalizing the Fockian in SOSCF/NRSCF***

               *****************************************************
               *                     SUCCESS                       *
               *           SCF CONVERGED AFTER  16 CYCLES          *
               *****************************************************

Old exchange energy                            =    -88.380686896 Eh
New exchange energy                            =    -88.382710378 Eh
Exchange energy change after final integration =     -0.002023482 Eh
Total energy after final integration           =  -3507.902116747 Eh
Final COS-X integration done in                =    43.389 sec

----------------
TOTAL SCF ENERGY
----------------

Total Energy       :        -3507.90211675 Eh          -95454.86943 eV

Components:
Nuclear Repulsion  :         3814.80445295 Eh          103806.10657 eV
Electronic Energy  :        -7322.70656970 Eh         -199260.97599 eV
One Electron Energy:       -12411.82217325 Eh         -337742.85185 eV
Two Electron Energy:         5089.11560355 Eh          138481.87586 eV

Virial components:
Potential Energy   :        -7005.30471301 Eh         -190624.03238 eV
Kinetic Energy     :         3497.40259626 Eh           95169.16295 eV
Virial Ratio       :            2.00300209


DFT components:
N(Alpha)           :      136.999972749459 electrons
N(Beta)            :      136.999972749459 electrons
N(Total)           :      273.999945498919 electrons
E(XC)              :     -223.499314280539 Eh       

---------------
SCF CONVERGENCE
---------------

  Last Energy change         ...   -3.2797e-08  Tolerance :   1.0000e-08
  Last MAX-Density change    ...    9.2116e-14  Tolerance :   1.0000e-07
  Last RMS-Density change    ...    1.5509e-16  Tolerance :   5.0000e-09
  Last Orbital Gradient      ...    1.5111e-06  Tolerance :   1.0000e-05
  Last Orbital Rotation      ...    7.3043e-06  Tolerance :   1.0000e-05

             **** THE GBW FILE WAS UPDATED (total.gbw) ****
             **** DENSITY FILE WAS UPDATED (total.scfp.tmp) ****
             **** ENERGY FILE WAS UPDATED (total.en.tmp) ****
----------------
ORBITAL ENERGIES
----------------

  NO   OCC          E(Eh)            E(eV) 
   0   2.0000     -89.015828     -2422.2438 
   1   2.0000     -89.009392     -2422.0687 
   2   2.0000     -88.998796     -2421.7804 
   3   2.0000     -88.994936     -2421.6753 
   4   2.0000     -88.991411     -2421.5794 
   5   2.0000     -88.991183     -2421.5732 
   6   2.0000     -14.479260      -394.0007 
   7   2.0000     -14.474989      -393.8845 
   8   2.0000     -14.472654      -393.8209 
   9   2.0000     -14.471995      -393.8030 
  10   2.0000     -14.465809      -393.6347 
  11   2.0000     -10.385914      -282.6151 
  12   2.0000     -10.383595      -282.5520 
  13   2.0000     -10.381212      -282.4871 
  14   2.0000     -10.376567      -282.3607 
  15   2.0000     -10.363711      -282.0109 
  16   2.0000     -10.362722      -281.9840 
  17   2.0000     -10.356039      -281.8021 
  18   2.0000     -10.349180      -281.6155 
  19   2.0000     -10.337616      -281.3008 
  20   2.0000     -10.336803      -281.2787 
  21   2.0000     -10.336047      -281.2581 
  22   2.0000     -10.327140      -281.0158 
  23   2.0000     -10.322211      -280.8817 
  24   2.0000     -10.306519      -280.4546 
  25   2.0000     -10.300787      -280.2987 
  26   2.0000     -10.297393      -280.2063 
  27   2.0000     -10.296408      -280.1795 
  28   2.0000     -10.290102      -280.0079 
  29   2.0000     -10.285380      -279.8794 
  30   2.0000     -10.284448      -279.8541 
  31   2.0000     -10.278494      -279.6920 
  32   2.0000     -10.271794      -279.5097 
  33   2.0000      -8.111924      -220.7367 
  34   2.0000      -8.105610      -220.5648 
  35   2.0000      -8.094938      -220.2744 
  36   2.0000      -8.091423      -220.1788 
  37   2.0000      -8.087780      -220.0797 
  38   2.0000      -8.087548      -220.0734 
  39   2.0000      -6.065021      -165.0376 
  40   2.0000      -6.061083      -164.9305 
  41   2.0000      -6.059020      -164.8743 
  42   2.0000      -6.058694      -164.8654 
  43   2.0000      -6.054780      -164.7589 
  44   2.0000      -6.052694      -164.7022 
  45   2.0000      -6.049072      -164.6036 
  46   2.0000      -6.045643      -164.5103 
  47   2.0000      -6.044659      -164.4835 
  48   2.0000      -6.041980      -164.4106 
  49   2.0000      -6.041756      -164.4045 
  50   2.0000      -6.041423      -164.3955 
  51   2.0000      -6.040444      -164.3688 
  52   2.0000      -6.037569      -164.2906 
  53   2.0000      -6.037323      -164.2839 
  54   2.0000      -6.036475      -164.2608 
  55   2.0000      -6.033107      -164.1692 
  56   2.0000      -6.032888      -164.1632 
  57   2.0000      -1.161286       -31.6002 
  58   2.0000      -1.152085       -31.3498 
  59   2.0000      -1.109128       -30.1809 
  60   2.0000      -1.026781       -27.9401 
  61   2.0000      -1.003645       -27.3106 
  62   2.0000      -0.994971       -27.0745 
  63   2.0000      -0.979993       -26.6670 
  64   2.0000      -0.965326       -26.2679 
  65   2.0000      -0.956276       -26.0216 
  66   2.0000      -0.939255       -25.5584 
  67   2.0000      -0.921230       -25.0679 
  68   2.0000      -0.911176       -24.7944 
  69   2.0000      -0.903173       -24.5766 
  70   2.0000      -0.893045       -24.3010 
  71   2.0000      -0.879007       -23.9190 
  72   2.0000      -0.876089       -23.8396 
  73   2.0000      -0.848982       -23.1020 
  74   2.0000      -0.848169       -23.0798 
  75   2.0000      -0.842464       -22.9246 
  76   2.0000      -0.790018       -21.4975 
  77   2.0000      -0.776439       -21.1280 
  78   2.0000      -0.760150       -20.6847 
  79   2.0000      -0.748311       -20.3626 
  80   2.0000      -0.728024       -19.8105 
  81   2.0000      -0.725358       -19.7380 
  82   2.0000      -0.714558       -19.4441 
  83   2.0000      -0.698644       -19.0111 
  84   2.0000      -0.688359       -18.7312 
  85   2.0000      -0.667865       -18.1735 
  86   2.0000      -0.657622       -17.8948 
  87   2.0000      -0.650230       -17.6937 
  88   2.0000      -0.631463       -17.1830 
  89   2.0000      -0.626686       -17.0530 
  90   2.0000      -0.619350       -16.8534 
  91   2.0000      -0.614743       -16.7280 
  92   2.0000      -0.601419       -16.3654 
  93   2.0000      -0.580385       -15.7931 
  94   2.0000      -0.576633       -15.6910 
  95   2.0000      -0.571081       -15.5399 
  96   2.0000      -0.561691       -15.2844 
  97   2.0000      -0.555052       -15.1037 
  98   2.0000      -0.549922       -14.9641 
  99   2.0000      -0.545860       -14.8536 
 100   2.0000      -0.544518       -14.8171 
 101   2.0000      -0.539341       -14.6762 
 102   2.0000      -0.531269       -14.4566 
 103   2.0000      -0.527632       -14.3576 
 104   2.0000      -0.524801       -14.2806 
 105   2.0000      -0.524391       -14.2694 
 106   2.0000      -0.521528       -14.1915 
 107   2.0000      -0.520019       -14.1504 
 108   2.0000      -0.503554       -13.7024 
 109   2.0000      -0.492377       -13.3983 
 110   2.0000      -0.484320       -13.1790 
 111   2.0000      -0.478825       -13.0295 
 112   2.0000      -0.477868       -13.0035 
 113   2.0000      -0.473114       -12.8741 
 114   2.0000      -0.469514       -12.7761 
 115   2.0000      -0.450046       -12.2464 
 116   2.0000      -0.448089       -12.1931 
 117   2.0000      -0.447073       -12.1655 
 118   2.0000      -0.438685       -11.9372 
 119   2.0000      -0.434331       -11.8187 
 120   2.0000      -0.425822       -11.5872 
 121   2.0000      -0.419421       -11.4130 
 122   2.0000      -0.413790       -11.2598 
 123   2.0000      -0.404529       -11.0078 
 124   2.0000      -0.404190       -10.9986 
 125   2.0000      -0.397069       -10.8048 
 126   2.0000      -0.390627       -10.6295 
 127   2.0000      -0.383780       -10.4432 
 128   2.0000      -0.380489       -10.3536 
 129   2.0000      -0.377080       -10.2609 
 130   2.0000      -0.372221       -10.1287 
 131   2.0000      -0.361663        -9.8413 
 132   2.0000      -0.341003        -9.2792 
 133   2.0000      -0.321389        -8.7454 
 134   2.0000      -0.301727        -8.2104 
 135   2.0000      -0.291795        -7.9402 
 136   2.0000      -0.257752        -7.0138 
 137   0.0000      -0.038736        -1.0541 
 138   0.0000      -0.002757        -0.0750 
 139   0.0000       0.015440         0.4202 
 140   0.0000       0.025415         0.6916 
 141   0.0000       0.047927         1.3042 
 142   0.0000       0.053087         1.4446 
 143   0.0000       0.054456         1.4818 
 144   0.0000       0.055264         1.5038 
 145   0.0000       0.070218         1.9107 
 146   0.0000       0.077851         2.1184 
 147   0.0000       0.081743         2.2243 
 148   0.0000       0.094155         2.5621 
 149   0.0000       0.097631         2.6567 
 150   0.0000       0.102439         2.7875 
 151   0.0000       0.105520         2.8713 
 152   0.0000       0.108247         2.9455 
 153   0.0000       0.115796         3.1510 
 154   0.0000       0.121097         3.2952 
 155   0.0000       0.126605         3.4451 
 156   0.0000       0.130126         3.5409 
 157   0.0000       0.132133         3.5955 
 158   0.0000       0.136739         3.7209 
 159   0.0000       0.140253         3.8165 
 160   0.0000       0.147476         4.0130 
 161   0.0000       0.150394         4.0924 
 162   0.0000       0.151626         4.1259 
 163   0.0000       0.160916         4.3788 
 164   0.0000       0.165106         4.4928 
 165   0.0000       0.168298         4.5796 
 166   0.0000       0.172069         4.6822 
 167   0.0000       0.174720         4.7544 
 168   0.0000       0.182933         4.9779 
 169   0.0000       0.184822         5.0293 
 170   0.0000       0.191695         5.2163 
 171   0.0000       0.199040         5.4162 
 172   0.0000       0.205055         5.5798 
 173   0.0000       0.212638         5.7862 
 174   0.0000       0.214790         5.8447 
 175   0.0000       0.219162         5.9637 
 176   0.0000       0.225868         6.1462 
 177   0.0000       0.229989         6.2583 
 178   0.0000       0.236649         6.4395 
 179   0.0000       0.243629         6.6295 
 180   0.0000       0.251440         6.8420 
 181   0.0000       0.255338         6.9481 
 182   0.0000       0.258188         7.0257 
 183   0.0000       0.261370         7.1122 
 184   0.0000       0.261963         7.1284 
 185   0.0000       0.266463         7.2508 
 186   0.0000       0.268774         7.3137 
 187   0.0000       0.270213         7.3529 
 188   0.0000       0.273794         7.4503 
 189   0.0000       0.276240         7.5169 
 190   0.0000       0.278041         7.5659 
 191   0.0000       0.279181         7.5969 
 192   0.0000       0.286044         7.7837 
 193   0.0000       0.287740         7.8298 
 194   0.0000       0.287988         7.8365 
 195   0.0000       0.292426         7.9573 
 196   0.0000       0.294295         8.0082 
 197   0.0000       0.296230         8.0608 
 198   0.0000       0.297552         8.0968 
 199   0.0000       0.298656         8.1268 
 200   0.0000       0.303847         8.2681 
 201   0.0000       0.305636         8.3168 
 202   0.0000       0.306146         8.3307 
 203   0.0000       0.312322         8.4987 
 204   0.0000       0.313191         8.5224 
 205   0.0000       0.315621         8.5885 
 206   0.0000       0.319118         8.6836 
 207   0.0000       0.329173         8.9573 
 208   0.0000       0.333495         9.0748 
 209   0.0000       0.335893         9.1401 
 210   0.0000       0.337966         9.1965 
 211   0.0000       0.338195         9.2027 
 212   0.0000       0.340368         9.2619 
 213   0.0000       0.342104         9.3091 
 214   0.0000       0.347288         9.4502 
 215   0.0000       0.349128         9.5003 
 216   0.0000       0.349488         9.5101 
 217   0.0000       0.352299         9.5866 
 218   0.0000       0.356729         9.7071 
 219   0.0000       0.360370         9.8062 
 220   0.0000       0.362610         9.8671 
 221   0.0000       0.367842        10.0095 
 222   0.0000       0.369508        10.0548 
 223   0.0000       0.371277        10.1030 
 224   0.0000       0.374446        10.1892 
 225   0.0000       0.378561        10.3012 
 226   0.0000       0.383811        10.4440 
 227   0.0000       0.385219        10.4823 
 228   0.0000       0.387966        10.5571 
 229   0.0000       0.389199        10.5906 
 230   0.0000       0.394176        10.7261 
 231   0.0000       0.398288        10.8380 
 232   0.0000       0.399413        10.8686 
 233   0.0000       0.405825        11.0431 
 234   0.0000       0.406898        11.0723 
 235   0.0000       0.410515        11.1707 
 236   0.0000       0.412055        11.2126 
 237   0.0000       0.414492        11.2789 
 238   0.0000       0.419225        11.4077 
 239   0.0000       0.426360        11.6019 
 240   0.0000       0.428646        11.6641 
 241   0.0000       0.430901        11.7254 
 242   0.0000       0.432782        11.7766 
 243   0.0000       0.435509        11.8508 
 244   0.0000       0.437284        11.8991 
 245   0.0000       0.441682        12.0188 
 246   0.0000       0.445524        12.1233 
 247   0.0000       0.447911        12.1883 
 248   0.0000       0.449624        12.2349 
 249   0.0000       0.455219        12.3871 
 250   0.0000       0.458959        12.4889 
 251   0.0000       0.459698        12.5090 
 252   0.0000       0.462341        12.5809 
 253   0.0000       0.468646        12.7525 
 254   0.0000       0.469575        12.7778 
 255   0.0000       0.471918        12.8415 
 256   0.0000       0.475689        12.9442 
 257   0.0000       0.476405        12.9636 
 258   0.0000       0.479331        13.0433 
 259   0.0000       0.482147        13.1199 
 260   0.0000       0.484613        13.1870 
 261   0.0000       0.485661        13.2155 
 262   0.0000       0.491701        13.3799 
 263   0.0000       0.493603        13.4316 
 264   0.0000       0.495641        13.4871 
 265   0.0000       0.498293        13.5592 
 266   0.0000       0.500918        13.6307 
 267   0.0000       0.503643        13.7048 
 268   0.0000       0.508810        13.8454 
 269   0.0000       0.509948        13.8764 
 270   0.0000       0.515456        14.0263 
 271   0.0000       0.516995        14.0681 
 272   0.0000       0.520205        14.1555 
 273   0.0000       0.525155        14.2902 
 274   0.0000       0.530736        14.4421 
 275   0.0000       0.535108        14.5610 
 276   0.0000       0.536154        14.5895 
 277   0.0000       0.540296        14.7022 
 278   0.0000       0.543825        14.7982 
 279   0.0000       0.546459        14.8699 
 280   0.0000       0.548044        14.9130 
 281   0.0000       0.550189        14.9714 
 282   0.0000       0.552337        15.0298 
 283   0.0000       0.555806        15.1242 
 284   0.0000       0.556051        15.1309 
 285   0.0000       0.563782        15.3413 
 286   0.0000       0.565937        15.3999 
 287   0.0000       0.568691        15.4749 
 288   0.0000       0.571943        15.5634 
 289   0.0000       0.579346        15.7648 
 290   0.0000       0.584504        15.9052 
 291   0.0000       0.585677        15.9371 
 292   0.0000       0.591206        16.0875 
 293   0.0000       0.593603        16.1528 
 294   0.0000       0.596539        16.2327 
 295   0.0000       0.601958        16.3801 
 296   0.0000       0.606064        16.4919 
 297   0.0000       0.609113        16.5748 
 298   0.0000       0.611511        16.6401 
 299   0.0000       0.615994        16.7620 
 300   0.0000       0.621387        16.9088 
 301   0.0000       0.627737        17.0816 
 302   0.0000       0.629049        17.1173 
 303   0.0000       0.632442        17.2096 
 304   0.0000       0.637707        17.3529 
 305   0.0000       0.642127        17.4732 
 306   0.0000       0.650275        17.6949 
 307   0.0000       0.651505        17.7284 
 308   0.0000       0.656646        17.8682 
 309   0.0000       0.658600        17.9214 
 310   0.0000       0.667061        18.1517 
 311   0.0000       0.672582        18.3019 
 312   0.0000       0.679889        18.5007 
 313   0.0000       0.681355        18.5406 
 314   0.0000       0.682567        18.5736 
 315   0.0000       0.684202        18.6181 
 316   0.0000       0.687404        18.7052 
 317   0.0000       0.689834        18.7714 
 318   0.0000       0.691960        18.8292 
 319   0.0000       0.698054        18.9950 
 320   0.0000       0.702144        19.1063 
 321   0.0000       0.704329        19.1658 
 322   0.0000       0.705281        19.1917 
 323   0.0000       0.713221        19.4077 
 324   0.0000       0.715710        19.4755 
 325   0.0000       0.724753        19.7215 
 326   0.0000       0.734720        19.9928 
 327   0.0000       0.739346        20.1186 
 328   0.0000       0.742238        20.1973 
 329   0.0000       0.746075        20.3017 
 330   0.0000       0.746873        20.3235 
 331   0.0000       0.748788        20.3756 
 332   0.0000       0.751658        20.4537 
 333   0.0000       0.755499        20.5582 
 334   0.0000       0.759075        20.6555 
 335   0.0000       0.761292        20.7158 
 336   0.0000       0.770272        20.9602 
 337   0.0000       0.770845        20.9758 
 338   0.0000       0.772462        21.0198 
 339   0.0000       0.773025        21.0351 
 340   0.0000       0.774329        21.0706 
 341   0.0000       0.774600        21.0779 
 342   0.0000       0.781677        21.2705 
 343   0.0000       0.785879        21.3849 
 344   0.0000       0.794218        21.6118 
 345   0.0000       0.795526        21.6474 
 346   0.0000       0.798157        21.7189 
 347   0.0000       0.805018        21.9057 
 348   0.0000       0.808005        21.9869 
 349   0.0000       0.818200        22.2643 
 350   0.0000       0.820875        22.3371 
 351   0.0000       0.823098        22.3976 
 352   0.0000       0.824503        22.4359 
 353   0.0000       0.827208        22.5095 
 354   0.0000       0.832079        22.6420 
 355   0.0000       0.835544        22.7363 
 356   0.0000       0.841390        22.8954 
 357   0.0000       0.842769        22.9329 
 358   0.0000       0.845409        23.0047 
 359   0.0000       0.850731        23.1496 
 360   0.0000       0.854197        23.2439 
 361   0.0000       0.857248        23.3269 
 362   0.0000       0.862450        23.4685 
 363   0.0000       0.866532        23.5795 
 364   0.0000       0.875901        23.8345 
 365   0.0000       0.880839        23.9688 
 366   0.0000       0.887579        24.1523 
 367   0.0000       0.889807        24.2129 
 368   0.0000       0.893517        24.3138 
 369   0.0000       0.896756        24.4020 
 370   0.0000       0.899297        24.4711 
 371   0.0000       0.907296        24.6888 
 372   0.0000       0.910030        24.7632 
 373   0.0000       0.917970        24.9792 
 374   0.0000       0.919778        25.0284 
 375   0.0000       0.923569        25.1316 
 376   0.0000       0.930699        25.3256 
 377   0.0000       0.933538        25.4029 
 378   0.0000       0.935988        25.4695 
 379   0.0000       0.939838        25.5743 
 380   0.0000       0.945228        25.7210 
 381   0.0000       0.950701        25.8699 
 382   0.0000       0.954043        25.9608 
 383   0.0000       0.959957        26.1217 
 384   0.0000       0.966105        26.2890 
 385   0.0000       0.966500        26.2998 
 386   0.0000       0.973683        26.4952 
 387   0.0000       0.983604        26.7652 
 388   0.0000       0.988652        26.9026 
 389   0.0000       0.991492        26.9799 
 390   0.0000       0.993925        27.0461 
 391   0.0000       0.999563        27.1995 
 392   0.0000       1.009736        27.4763 
 393   0.0000       1.012542        27.5527 
 394   0.0000       1.018569        27.7167 
 395   0.0000       1.025784        27.9130 
 396   0.0000       1.030748        28.0481 
 397   0.0000       1.042065        28.3560 
 398   0.0000       1.043296        28.3895 
 399   0.0000       1.051301        28.6074 
 400   0.0000       1.053106        28.6565 
 401   0.0000       1.054968        28.7072 
 402   0.0000       1.061843        28.8942 
 403   0.0000       1.064493        28.9663 
 404   0.0000       1.073218        29.2037 
 405   0.0000       1.075381        29.2626 
 406   0.0000       1.082896        29.4671 
 407   0.0000       1.094576        29.7849 
 408   0.0000       1.096947        29.8495 
 409   0.0000       1.105185        30.0736 
 410   0.0000       1.107509        30.1369 
 411   0.0000       1.115131        30.3443 
 412   0.0000       1.117770        30.4161 
 413   0.0000       1.134053        30.8592 
 414   0.0000       1.138558        30.9817 
 415   0.0000       1.141514        31.0622 
 416   0.0000       1.148602        31.2551 
 417   0.0000       1.157774        31.5046 
 418   0.0000       1.162773        31.6407 
 419   0.0000       1.166291        31.7364 
 420   0.0000       1.175241        31.9799 
 421   0.0000       1.178224        32.0611 
 422   0.0000       1.186031        32.2735 
 423   0.0000       1.190220        32.3875 
 424   0.0000       1.195344        32.5270 
 425   0.0000       1.203851        32.7585 
 426   0.0000       1.207114        32.8473 
 427   0.0000       1.214284        33.0423 
 428   0.0000       1.224786        33.3281 
 429   0.0000       1.230697        33.4890 
 430   0.0000       1.233677        33.5701 
 431   0.0000       1.240290        33.7500 
 432   0.0000       1.248647        33.9774 
 433   0.0000       1.250814        34.0364 
 434   0.0000       1.261734        34.3335 
 435   0.0000       1.265086        34.4247 
 436   0.0000       1.266707        34.4688 
 437   0.0000       1.269929        34.5565 
 438   0.0000       1.282638        34.9024 
 439   0.0000       1.285631        34.9838 
 440   0.0000       1.294479        35.2246 
 441   0.0000       1.299959        35.3737 
 442   0.0000       1.305590        35.5269 
 443   0.0000       1.314547        35.7706 
 444   0.0000       1.319377        35.9021 
 445   0.0000       1.321909        35.9710 
 446   0.0000       1.326447        36.0945 
 447   0.0000       1.336961        36.3806 
 448   0.0000       1.340258        36.4703 
 449   0.0000       1.344099        36.5748 
 450   0.0000       1.345961        36.6255 
 451   0.0000       1.351534        36.7771 
 452   0.0000       1.358420        36.9645 
 453   0.0000       1.369070        37.2543 
 454   0.0000       1.372214        37.3398 
 455   0.0000       1.378644        37.5148 
 456   0.0000       1.388314        37.7779 
 457   0.0000       1.396810        38.0091 
 458   0.0000       1.405786        38.2534 
 459   0.0000       1.410509        38.3819 
 460   0.0000       1.417037        38.5595 
 461   0.0000       1.423255        38.7287 
 462   0.0000       1.426962        38.8296 
 463   0.0000       1.432434        38.9785 
 464   0.0000       1.439048        39.1585 
 465   0.0000       1.450835        39.4792 
 466   0.0000       1.453744        39.5584 
 467   0.0000       1.464141        39.8413 
 468   0.0000       1.473859        40.1057 
 469   0.0000       1.478366        40.2284 
 470   0.0000       1.483504        40.3682 
 471   0.0000       1.487584        40.4792 
 472   0.0000       1.491986        40.5990 
 473   0.0000       1.496153        40.7124 
 474   0.0000       1.497439        40.7474 
 475   0.0000       1.501618        40.8611 
 476   0.0000       1.507083        41.0098 
 477   0.0000       1.511310        41.1248 
 478   0.0000       1.513721        41.1905 
 479   0.0000       1.517393        41.2904 
 480   0.0000       1.520912        41.3861 
 481   0.0000       1.525901        41.5219 
 482   0.0000       1.533598        41.7313 
 483   0.0000       1.536979        41.8233 
 484   0.0000       1.544529        42.0288 
 485   0.0000       1.549627        42.1675 
 486   0.0000       1.551880        42.2288 
 487   0.0000       1.554781        42.3077 
 488   0.0000       1.562873        42.5279 
 489   0.0000       1.563620        42.5483 
 490   0.0000       1.566721        42.6326 
 491   0.0000       1.569599        42.7110 
 492   0.0000       1.579655        42.9846 
 493   0.0000       1.581658        43.0391 
 494   0.0000       1.584676        43.1212 
 495   0.0000       1.585446        43.1422 
 496   0.0000       1.588147        43.2157 
 497   0.0000       1.592912        43.3453 
 498   0.0000       1.603809        43.6419 
 499   0.0000       1.605584        43.6902 
 500   0.0000       1.606165        43.7060 
 501   0.0000       1.607356        43.7384 
 502   0.0000       1.609293        43.7911 
 503   0.0000       1.610993        43.8374 
 504   0.0000       1.611845        43.8605 
 505   0.0000       1.614831        43.9418 
 506   0.0000       1.618773        44.0490 
 507   0.0000       1.623981        44.1908 
 508   0.0000       1.628319        44.3088 
 509   0.0000       1.630814        44.3767 
 510   0.0000       1.632478        44.4220 
 511   0.0000       1.636863        44.5413 
 512   0.0000       1.643678        44.7267 
 513   0.0000       1.647198        44.8225 
 514   0.0000       1.650069        44.9007 
 515   0.0000       1.651179        44.9309 
 516   0.0000       1.657770        45.1102 
 517   0.0000       1.659217        45.1496 
 518   0.0000       1.663425        45.2641 
 519   0.0000       1.667639        45.3788 
 520   0.0000       1.673011        45.5250 
 521   0.0000       1.675250        45.5859 
 522   0.0000       1.679005        45.6881 
 523   0.0000       1.681148        45.7464 
 524   0.0000       1.691244        46.0211 
 525   0.0000       1.692032        46.0425 
 526   0.0000       1.695637        46.1406 
 527   0.0000       1.697074        46.1797 
 528   0.0000       1.699282        46.2398 
 529   0.0000       1.703579        46.3568 
 530   0.0000       1.706313        46.4311 
 531   0.0000       1.712826        46.6084 
 532   0.0000       1.715842        46.6904 
 533   0.0000       1.725294        46.9476 
 534   0.0000       1.730294        47.0837 
 535   0.0000       1.732117        47.1333 
 536   0.0000       1.735449        47.2240 
 537   0.0000       1.740934        47.3732 
 538   0.0000       1.743069        47.4313 
 539   0.0000       1.746357        47.5208 
 540   0.0000       1.754292        47.7367 
 541   0.0000       1.767369        48.0926 
 542   0.0000       1.773637        48.2631 
 543   0.0000       1.774926        48.2982 
 544   0.0000       1.781669        48.4817 
 545   0.0000       1.786265        48.6068 
 546   0.0000       1.788419        48.6654 
 547   0.0000       1.792177        48.7676 
 548   0.0000       1.801220        49.0137 
 549   0.0000       1.803704        49.0813 
 550   0.0000       1.804398        49.1002 
 551   0.0000       1.809508        49.2392 
 552   0.0000       1.810945        49.2783 
 553   0.0000       1.817204        49.4486 
 554   0.0000       1.822027        49.5799 
 555   0.0000       1.825383        49.6712 
 556   0.0000       1.828648        49.7600 
 557   0.0000       1.832283        49.8590 
 558   0.0000       1.839056        50.0432 
 559   0.0000       1.841819        50.1184 
 560   0.0000       1.846637        50.2496 
 561   0.0000       1.854068        50.4517 
 562   0.0000       1.858434        50.5706 
 563   0.0000       1.862199        50.6730 
 564   0.0000       1.865303        50.7575 
 565   0.0000       1.869055        50.8596 
 566   0.0000       1.871206        50.9181 
 567   0.0000       1.879948        51.1560 
 568   0.0000       1.883267        51.2463 
 569   0.0000       1.885448        51.3056 
 570   0.0000       1.887501        51.3615 
 571   0.0000       1.890771        51.4505 
 572   0.0000       1.894239        51.5449 
 573   0.0000       1.902308        51.7644 
 574   0.0000       1.905717        51.8572 
 575   0.0000       1.908306        51.9277 
 576   0.0000       1.912227        52.0343 
 577   0.0000       1.915955        52.1358 
 578   0.0000       1.917065        52.1660 
 579   0.0000       1.921358        52.2828 
 580   0.0000       1.923886        52.3516 
 581   0.0000       1.928441        52.4755 
 582   0.0000       1.936005        52.6814 
 583   0.0000       1.944119        52.9022 
 584   0.0000       1.946156        52.9576 
 585   0.0000       1.953687        53.1625 
 586   0.0000       1.956037        53.2265 
 587   0.0000       1.959423        53.3186 
 588   0.0000       1.965436        53.4822 
 589   0.0000       1.969321        53.5879 
 590   0.0000       1.978947        53.8499 
 591   0.0000       1.979774        53.8724 
 592   0.0000       1.984815        54.0096 
 593   0.0000       1.989987        54.1503 
 594   0.0000       2.002145        54.4811 
 595   0.0000       2.010294        54.7029 
 596   0.0000       2.011327        54.7310 
 597   0.0000       2.016130        54.8617 
 598   0.0000       2.019046        54.9410 
 599   0.0000       2.021311        55.0027 
 600   0.0000       2.026862        55.1537 
 601   0.0000       2.033085        55.3230 
 602   0.0000       2.034980        55.3746 
 603   0.0000       2.038218        55.4627 
 604   0.0000       2.039604        55.5004 
 605   0.0000       2.048807        55.7509 
 606   0.0000       2.054532        55.9066 
 607   0.0000       2.060390        56.0661 
 608   0.0000       2.067330        56.2549 
 609   0.0000       2.070443        56.3396 
 610   0.0000       2.073072        56.4112 
 611   0.0000       2.079521        56.5867 
 612   0.0000       2.084118        56.7117 
 613   0.0000       2.094347        56.9901 
 614   0.0000       2.097327        57.0712 
 615   0.0000       2.100772        57.1649 
 616   0.0000       2.111210        57.4489 
 617   0.0000       2.115711        57.5714 
 618   0.0000       2.130838        57.9831 
 619   0.0000       2.136421        58.1350 
 620   0.0000       2.142144        58.2907 
 621   0.0000       2.146339        58.4049 
 622   0.0000       2.150410        58.5156 
 623   0.0000       2.155241        58.6471 
 624   0.0000       2.162162        58.8354 
 625   0.0000       2.164373        58.8956 
 626   0.0000       2.170804        59.0706 
 627   0.0000       2.176410        59.2231 
 628   0.0000       2.182621        59.3921 
 629   0.0000       2.185492        59.4703 
 630   0.0000       2.191065        59.6219 
 631   0.0000       2.194128        59.7053 
 632   0.0000       2.206338        60.0375 
 633   0.0000       2.207892        60.0798 
 634   0.0000       2.210606        60.1536 
 635   0.0000       2.213802        60.2406 
 636   0.0000       2.217045        60.3289 
 637   0.0000       2.233312        60.7715 
 638   0.0000       2.240166        60.9580 
 639   0.0000       2.246682        61.1353 
 640   0.0000       2.256352        61.3985 
 641   0.0000       2.257441        61.4281 
 642   0.0000       2.271224        61.8031 
 643   0.0000       2.279014        62.0151 
 644   0.0000       2.287052        62.2339 
 645   0.0000       2.296104        62.4802 
 646   0.0000       2.300219        62.5921 
 647   0.0000       2.301472        62.6262 
 648   0.0000       2.303384        62.6783 
 649   0.0000       2.310318        62.8669 
 650   0.0000       2.318818        63.0982 
 651   0.0000       2.322952        63.2107 
 652   0.0000       2.326719        63.3133 
 653   0.0000       2.330136        63.4062 
 654   0.0000       2.333966        63.5104 
 655   0.0000       2.343177        63.7611 
 656   0.0000       2.352392        64.0118 
 657   0.0000       2.358937        64.1900 
 658   0.0000       2.360083        64.2211 
 659   0.0000       2.364626        64.3447 
 660   0.0000       2.373607        64.5891 
 661   0.0000       2.383672        64.8630 
 662   0.0000       2.402538        65.3764 
 663   0.0000       2.419320        65.8330 
 664   0.0000       2.424722        65.9800 
 665   0.0000       2.425742        66.0078 
 666   0.0000       2.433650        66.2230 
 667   0.0000       2.434338        66.2417 
 668   0.0000       2.457596        66.8746 
 669   0.0000       2.467995        67.1576 
 670   0.0000       2.479158        67.4613 
 671   0.0000       2.493226        67.8441 
 672   0.0000       2.509002        68.2734 
 673   0.0000       2.515263        68.4438 
 674   0.0000       2.527067        68.7650 
 675   0.0000       2.528416        68.8017 
 676   0.0000       2.535056        68.9824 
 677   0.0000       2.535897        69.0053 
 678   0.0000       2.544736        69.2458 
 679   0.0000       2.549502        69.3755 
 680   0.0000       2.566926        69.8496 
 681   0.0000       2.572937        70.0132 
 682   0.0000       2.576516        70.1106 
 683   0.0000       2.579144        70.1821 
 684   0.0000       2.593883        70.5832 
 685   0.0000       2.606990        70.9398 
 686   0.0000       2.617555        71.2273 
 687   0.0000       2.626557        71.4723 
 688   0.0000       2.639664        71.8289 
 689   0.0000       2.646734        72.0213 
 690   0.0000       2.651389        72.1480 
 691   0.0000       2.652479        72.1776 
 692   0.0000       2.657738        72.3207 
 693   0.0000       2.665253        72.5252 
 694   0.0000       2.671345        72.6910 
 695   0.0000       2.679483        72.9125 
 696   0.0000       2.684994        73.0624 
 697   0.0000       2.689674        73.1898 
 698   0.0000       2.692609        73.2696 
 699   0.0000       2.696565        73.3773 
 700   0.0000       2.705933        73.6322 
 701   0.0000       2.716604        73.9226 
 702   0.0000       2.725082        74.1533 
 703   0.0000       2.732266        74.3487 
 704   0.0000       2.736216        74.4562 
 705   0.0000       2.739298        74.5401 
 706   0.0000       2.741553        74.6015 
 707   0.0000       2.751175        74.8633 
 708   0.0000       2.753036        74.9139 
 709   0.0000       2.759573        75.0918 
 710   0.0000       2.765560        75.2547 
 711   0.0000       2.768675        75.3395 
 712   0.0000       2.774704        75.5035 
 713   0.0000       2.777464        75.5786 
 714   0.0000       2.781795        75.6965 
 715   0.0000       2.782919        75.7271 
 716   0.0000       2.787273        75.8456 
 717   0.0000       2.792435        75.9860 
 718   0.0000       2.803558        76.2887 
 719   0.0000       2.808016        76.4100 
 720   0.0000       2.812698        76.5374 
 721   0.0000       2.815498        76.6136 
 722   0.0000       2.825530        76.8866 
 723   0.0000       2.830812        77.0303 
 724   0.0000       2.839625        77.2701 
[...]
 192   8.918     139.0   0.029376   0.027843  -46.312630  -43.549074     0.06 (  76->  93)    0.06 (  46->  77)    0.05 (  61->  77)
 193   8.930     138.8   0.004093   0.003557  -0.354033  -0.600336     0.03 (  70->  79)    0.03 (  70->  93)    0.02 (  70->  94)
 194   8.944     138.6   0.022438   0.019511  26.454852  26.674597     0.04 (  68->  94)    0.03 (  68->  93)    0.02 (  76->  93)
 195   8.949     138.5   0.009266   0.009816  -20.369580  -19.254316     0.03 (  75->  86)    0.03 (  60->  78)    0.02 (  64->  82)
 196   8.960     138.4   0.018709   0.018441  -8.286946  -9.497889     0.20 (  75->  86)    0.02 (  65->  81)    0.01 (  62->  86)
 197   8.966     138.3   0.047812   0.039591  38.024084  34.380766     0.04 (  38->  77)    0.02 (  41->  77)    0.02 (  76->  92)
 198   8.983     138.0   0.034709   0.030169  -21.791958  -20.552491     0.18 (  76->  92)    0.03 (  69->  80)    0.03 (  69->  82)
 199   8.986     138.0   0.016495   0.013877  19.509417  18.091586     0.06 (  76->  92)    0.06 (  66->  82)    0.06 (  63->  82)
 200   8.997     137.8   0.038415   0.032056  -31.467777  -27.389853     0.03 (  49->  78)    0.03 (  73->  84)    0.03 (  58->  77)
 201   9.006     137.7   0.000774   0.000883   2.180934   2.444369     0.15 (  75->  86)    0.11 (  76->  92)    0.03 (  76->  93)
 202   9.023     137.4   0.036616   0.031775  -27.991896  -23.738038     0.12 (  76->  92)    0.02 (  74-> 108)    0.02 (  72->  84)
 203   9.030     137.3   0.004784   0.004148  -9.180828  -9.965158     0.05 (  66->  91)    0.04 (  62->  79)    0.03 (  69->  91)
 204   9.038     137.2   0.007875   0.007283  -29.168789  -29.142869     0.14 (  76->  92)    0.05 (  56->  77)    0.04 (  52->  79)
 205   9.044     137.1   0.008872   0.008094  -8.652219  -8.117827     0.09 (  74-> 110)    0.03 (  76->  92)    0.02 (  67->  96)
 206   9.054     136.9   0.015047   0.010361  17.443115  15.290844     0.08 (  76->  92)    0.06 (  74-> 110)    0.03 (  52->  79)
 207   9.060     136.8   0.026381   0.021162  -2.780505  -1.271480     0.06 (  52->  79)    0.02 (  76-> 117)    0.02 (  69->  96)
 208   9.065     136.8   0.004116   0.003734  -7.545719  -7.036918     0.07 (  52->  79)    0.04 (  58->  81)    0.03 (  55->  77)
 209   9.072     136.7   0.010463   0.008774   4.289528   3.759598     0.04 (  56->  77)    0.04 (  52->  79)    0.02 (  60->  78)
 210   9.076     136.6   0.012770   0.010332  -5.126379  -3.635984     0.04 (  74-> 110)    0.02 (  49->  77)    0.02 (  74->  86)
 211   9.092     136.4   0.020896   0.019208  28.918701  27.724974     0.03 (  52->  79)    0.03 (  73->  85)    0.02 (  62->  85)
 212   9.106     136.2   0.005019   0.004080  20.023909  17.100401     0.10 (  52->  79)    0.04 (  63->  78)    0.03 (  68-> 100)
 213   9.118     136.0   0.119195   0.096883  37.608338  35.443048     0.05 (  72->  84)    0.04 (  73->  84)    0.03 (  49->  78)
 214   9.137     135.7   0.009601   0.007316  -25.944132  -23.222183     0.21 (  38->  77)    0.05 (  45->  77)    0.05 (  61->  78)
 215   9.142     135.6   0.018357   0.016020  -5.468998  -3.676035     0.14 (  74->  86)    0.04 (  38->  77)    0.04 (  74-> 110)
 216   9.153     135.5   0.001149   0.000882   0.100149   0.160007     0.07 (  68-> 100)    0.07 (  68->  98)    0.05 (  52->  79)
 217   9.174     135.2   0.003559   0.002740  -13.304509  -11.150168     0.08 (  54->  81)    0.03 (  57->  88)    0.03 (  57->  77)
 218   9.181     135.0   0.008768   0.008129   5.038821   4.946064     0.04 (  65->  88)    0.03 (  73-> 103)    0.03 (  73-> 105)
 219   9.207     134.7   0.001764   0.001925  -6.923933  -7.337242     0.21 (  74->  86)    0.05 (  65->  88)    0.02 (  65->  87)
 220   9.212     134.6   0.050536   0.043011  19.646984  16.909072     0.06 (  54->  81)    0.03 (  73->  81)    0.03 (  64->  78)
 221   9.217     134.5   0.007304   0.006561  12.174725  10.350441     0.21 (  74->  86)    0.03 (  76->  99)    0.02 (  76->  97)
 222   9.219     134.5   0.005285   0.004342   8.077336   7.048784     0.06 (  74->  86)    0.06 (  67-> 101)    0.06 (  69-> 101)
 223   9.235     134.3   0.074300   0.065659  -0.552360  -1.310646     0.06 (  50->  79)    0.03 (  69->  95)    0.02 (  54->  81)
 224   9.265     133.8   0.005512   0.003779  -53.599355  -48.304985     0.03 (  71->  90)    0.02 (  72->  95)    0.02 (  73->  87)
 225   9.269     133.8   0.016982   0.012224  -25.022260  -17.599305     0.11 (  75->  89)    0.05 (  73-> 103)    0.03 (  73-> 108)
 226   9.280     133.6   0.006138   0.006312  -17.097400  -18.016316     0.04 (  57->  87)    0.03 (  75-> 114)    0.03 (  75-> 112)
 227   9.292     133.4   0.013215   0.012189  34.119976  32.242811     0.10 (  57->  87)    0.08 (  57->  77)    0.03 (  56->  87)
 228   9.304     133.3   0.049535   0.041020  -12.617815  -10.911266     0.14 (  68->  84)    0.05 (  69->  84)    0.04 (  68->  83)
 229   9.307     133.2   0.027267   0.023458  13.947217  13.588434     0.24 (  68->  84)    0.08 (  70->  84)    0.05 (  68->  83)
 230   9.318     133.1   0.011962   0.009347  25.130870  21.353102     0.04 (  53->  81)    0.03 (  51->  81)    0.03 (  59->  81)
 231   9.332     132.9   0.047810   0.040234  -10.648059  -7.067072     0.03 (  72->  97)    0.03 (  76->  99)    0.03 (  72->  96)
 232   9.339     132.8   0.006686   0.005445  11.645497  10.701761     0.06 (  59->  78)    0.04 (  75->  91)    0.03 (  59->  81)
 233   9.349     132.6   0.008953   0.006761  -13.222326  -11.356273     0.08 (  75->  91)    0.06 (  75->  89)    0.03 (  76-> 117)
 234   9.359     132.5   0.019577   0.015521  -11.372712  -8.954898     0.06 (  61->  86)    0.03 (  74-> 113)    0.02 (  75->  91)
 235   9.365     132.4   0.129120   0.113226  -25.598807  -22.718588     0.21 (  61->  86)    0.06 (  61->  83)    0.05 (  56->  79)
 236   9.373     132.3   0.047652   0.041221  37.466482  33.639580     0.05 (  75->  89)    0.04 (  61->  86)    0.03 (  67->  79)
 237   9.381     132.2   0.002959   0.002703   4.313584   2.796147     0.03 (  74-> 113)    0.03 (  73-> 107)    0.02 (  73-> 106)
 238   9.391     132.0   0.056452   0.047256  -52.039185  -51.850096     0.08 (  52->  82)    0.03 (  50->  79)    0.03 (  67->  85)
 239   9.392     132.0   0.005411   0.004863  31.643749  29.160265     0.08 (  75->  89)    0.02 (  67->  79)    0.02 (  76-> 108)
 240   9.400     131.9   0.011576   0.009186  21.947022  22.182525     0.32 (  52->  82)    0.08 (  56->  82)    0.06 (  61->  82)
 241   9.420     131.6   0.085499   0.069432  41.600303  34.827515     0.13 (  50->  79)    0.02 (  58->  78)    0.01 (  76-> 108)
 242   9.439     131.3   0.026595   0.023931  -34.125525  -30.532721     0.11 (  72->  82)    0.06 (  70->  87)    0.06 (  70->  88)
 243   9.447     131.2   0.012628   0.011776  -26.346684  -26.821492     0.08 (  50->  82)    0.06 (  74-> 113)    0.04 (  48->  82)
 244   9.449     131.2   0.006528   0.005999  -30.043179  -28.293158     0.32 (  50->  82)    0.18 (  48->  82)    0.02 (  50->  83)
 245   9.456     131.1   0.058849   0.054001  47.516535  44.760682     0.11 (  72->  82)    0.05 (  50->  82)    0.04 (  73->  82)
 246   9.467     131.0   0.027918   0.024238  -2.434015  -3.492186     0.03 (  70->  87)    0.02 (  67->  79)    0.02 (  70->  88)
 247   9.484     130.7   0.043883   0.037243  55.724061  50.001292     0.04 (  50->  79)    0.02 (  72->  82)    0.02 (  75->  89)
 248   9.489     130.7   0.011777   0.011129   4.499358   4.462709     0.08 (  75->  91)    0.06 (  75->  89)    0.04 (  76->  97)
 249   9.495     130.6   0.011523   0.010992  -2.037373  -1.904852     0.06 (  72->  82)    0.04 (  67->  80)    0.02 (  69->  80)
 250   9.502     130.5   0.023458   0.019349  31.425991  29.108243     0.04 (  75->  91)    0.03 (  62->  85)    0.02 (  49->  79)
 251   9.505     130.4   0.006464   0.005743  20.395439  20.463608     0.03 (  67->  80)    0.02 (  75->  94)    0.02 (  75-> 115)
 252   9.522     130.2   0.007801   0.007240  28.566472  25.772565     0.10 (  56->  86)    0.06 (  56->  83)    0.03 (  57->  86)
 253   9.550     129.8   0.012429   0.010465   9.590866   8.161006     0.04 (  70->  79)    0.03 (  70->  83)    0.02 (  65->  93)
 254   9.552     129.8   0.001174   0.000873   2.089294   3.194455     0.03 (  76->  97)    0.03 (  75-> 115)    0.02 (  72->  81)
 255   9.561     129.7   0.038749   0.032176  -48.697270  -45.208078     0.05 (  75->  91)    0.04 (  73->  87)    0.02 (  50->  79)
 256   9.574     129.5   0.155384   0.141727  -131.439933  -115.936628     0.06 (  50->  79)    0.04 (  75->  89)    0.03 (  60->  79)
 257   9.581     129.4   0.013550   0.012080  15.579740  16.262834     0.16 (  75->  89)    0.07 (  75->  91)    0.05 (  74->  89)
 258   9.587     129.3   0.006043   0.005061   9.496332   8.866039     0.04 (  56->  86)    0.03 (  56->  83)    0.03 (  47->  78)
 259   9.601     129.1   0.003295   0.002565  -7.086021  -7.566566     0.06 (  76->  99)    0.04 (  76->  98)    0.03 (  76->  97)
 260   9.602     129.1   0.058813   0.051989  15.795832  14.516762     0.03 (  49->  79)    0.02 (  76->  97)    0.02 (  74->  89)
 261   9.611     129.0   0.016424   0.015153  17.959885  18.266952     0.02 (  73->  87)    0.02 (  72->  99)    0.02 (  70->  83)
 262   9.617     128.9   0.013572   0.010875  16.223243  15.050756     0.04 (  60->  80)    0.03 (  64->  93)    0.03 (  69-> 102)
 263   9.620     128.9   0.023903   0.019900  23.248852  23.462046     0.05 (  74->  89)    0.04 (  75->  91)    0.03 (  62->  80)
 264   9.623     128.8   0.010311   0.009973  17.949380  15.589559     0.13 (  60->  85)    0.02 (  60->  91)    0.02 (  64->  79)
 265   9.637     128.6   0.033107   0.026473  37.271535  32.369153     0.03 (  65->  79)    0.03 (  61->  89)    0.03 (  74->  89)
 266   9.652     128.5   0.010756   0.007776  -20.502104  -16.724729     0.18 (  61->  89)    0.03 (  61->  91)    0.02 (  74-> 114)
 267   9.653     128.4   0.028138   0.022797  -24.411040  -22.902901     0.18 (  61->  89)    0.03 (  68->  89)    0.02 (  61->  91)
 268   9.658     128.4   0.007274   0.005696  16.294812  14.021751     0.12 (  74->  89)    0.03 (  74->  91)    0.02 (  75->  91)
 269   9.675     128.2   0.017184   0.013320  -19.579889  -15.773176     0.07 (  75-> 115)    0.02 (  37->  77)    0.02 (  73->  87)
 270   9.676     128.1   0.013081   0.010831  29.411906  25.543728     0.02 (  63->  90)    0.02 (  51->  77)    0.02 (  57->  87)
 271   9.704     127.8   0.001554   0.001296  -4.165065  -3.010531     0.05 (  46->  78)    0.02 (  76-> 123)    0.02 (  76-> 124)
 272   9.707     127.7   0.028491   0.020840  60.323325  50.183002     0.03 (  61->  89)    0.03 (  66-> 100)    0.03 (  74->  89)
 273   9.712     127.7   0.000908   0.000718   6.784954   7.390716     0.06 (  74->  89)    0.04 (  46->  78)    0.03 (  62->  79)
 274   9.722     127.5   0.009150   0.007371  -5.511648  -6.026992     0.10 (  76-> 123)    0.08 (  76-> 124)    0.07 (  76-> 126)
 275   9.724     127.5   0.000710   0.000867  -3.298749  -3.652039     0.04 (  68->  86)    0.03 (  72->  84)    0.03 (  68-> 100)
 276   9.736     127.3   0.012690   0.010587  -1.506739  -0.890674     0.12 (  61->  89)    0.06 (  72->  84)    0.05 (  71->  84)
 277   9.743     127.3   0.013735   0.012847  10.548659  12.158397     0.04 (  68->  86)    0.04 (  61->  89)    0.02 (  66->  80)
 278   9.747     127.2   0.026308   0.020653  -3.789677  -3.915613     0.06 (  74-> 115)    0.04 (  76->  99)    0.02 (  73->  88)
 279   9.759     127.0   0.010040   0.009478  16.601444  16.615037     0.08 (  76->  99)    0.06 (  68->  81)    0.02 (  73-> 111)
 280   9.761     127.0   0.001169   0.000865   4.408333   3.592666     0.09 (  68->  81)    0.04 (  68->  80)    0.03 (  76->  99)
 281   9.764     127.0   0.013029   0.010778  -20.684071  -18.192617     0.05 (  72->  99)    0.03 (  74->  89)    0.02 (  71->  99)
 282   9.773     126.9   0.034276   0.028068   5.711565   6.847968     0.06 (  54->  77)    0.05 (  68->  81)    0.03 (  46->  78)
 283   9.780     126.8   0.002597   0.003051  -6.828112  -6.877942     0.06 (  74->  89)    0.04 (  72->  84)    0.03 (  66->  80)
 284   9.781     126.8   0.008204   0.008158  -14.765837  -14.736722     0.06 (  74->  89)    0.05 (  74->  91)    0.03 (  72->  84)
 285   9.793     126.6   0.008129   0.006538  -22.305259  -19.154775     0.06 (  75-> 114)    0.04 (  71->  84)    0.03 (  75-> 115)
 286   9.812     126.4   0.002085   0.002189  -5.852351  -6.023727     0.07 (  74->  91)    0.04 (  74->  89)    0.04 (  62->  79)
 287   9.822     126.2   0.007822   0.007378  -25.374112  -24.619740     0.03 (  44->  79)    0.02 (  76-> 120)    0.02 (  55->  78)
 288   9.837     126.0   0.004708   0.004295  -2.036484  -3.046154     0.08 (  74->  91)    0.05 (  75-> 115)    0.05 (  72-> 105)
 289   9.842     126.0   0.001352   0.001401   6.055318   4.347532     0.06 (  75->  95)    0.04 (  48->  79)    0.04 (  75-> 115)
 290   9.848     125.9   0.000458   0.000403   1.291377   1.754585     0.06 (  74->  91)    0.05 (  75-> 113)    0.04 (  72-> 105)
 291   9.850     125.9   0.015132   0.015348   6.661876   4.912230     0.11 (  48->  79)    0.03 (  76-> 125)    0.02 (  76-> 120)
 292   9.865     125.7   0.009186   0.007557  -15.051476  -14.229005     0.05 (  75->  95)    0.05 (  64->  95)    0.03 (  75-> 115)
 293   9.873     125.6   0.009142   0.007175  -4.169513  -4.080805     0.05 (  76->  99)    0.03 (  75-> 117)    0.03 (  76-> 100)
 294   9.873     125.6   0.024260   0.020974  -14.818833  -13.683850     0.04 (  61->  78)    0.03 (  48->  79)    0.02 (  60->  95)
 295   9.878     125.5   0.003523   0.002428   9.648182   8.899117     0.05 (  61->  78)    0.05 (  76-> 100)    0.04 (  48->  79)
 296   9.882     125.5   0.006785   0.005874   5.877686   5.984576     0.08 (  61->  78)    0.04 (  52->  77)    0.03 (  56->  78)
 297   9.891     125.4   0.030660   0.028564  12.903647  13.254028     0.05 (  66->  84)    0.05 (  71->  84)    0.05 (  75->  95)
 298   9.902     125.2   0.005872   0.005024  -13.729641  -12.753213     0.04 (  48->  79)    0.03 (  75->  95)    0.03 (  46->  78)
 299   9.917     125.0   0.010706   0.009381   1.584550   2.117399     0.03 (  76-> 100)    0.03 (  64-> 100)    0.03 (  72->  86)
 300   9.925     124.9   0.020057   0.020555  -4.585801  -4.044540     0.04 (  74-> 115)    0.03 (  63-> 100)    0.03 (  64->  99)
 301   9.933     124.8   0.016781   0.011595  -24.594793  -21.142950     0.10 (  48->  79)    0.06 (  68->  89)    0.04 (  68->  86)
 302   9.935     124.8   0.004031   0.003932  -4.780819  -4.746650     0.03 (  76-> 102)    0.03 (  73->  88)    0.03 (  76-> 100)
 303   9.943     124.7   0.011934   0.009394  19.484963  16.373181     0.13 (  74-> 115)    0.03 (  54->  77)    0.03 (  42->  78)
 304   9.954     124.6   0.020378   0.017825  -26.624233  -24.463280     0.10 (  52->  84)    0.03 (  52->  83)    0.03 (  71->  82)
 305   9.960     124.5   0.002343   0.002411   5.419754   4.960523     0.11 (  52->  84)    0.04 (  42->  78)    0.03 (  52->  83)
 306   9.960     124.5   0.003914   0.003357  -12.901397  -12.317859     0.14 (  71->  82)    0.09 (  52->  84)    0.08 (  72->  82)
 307   9.970     124.4   0.006530   0.005326   3.708392   2.981679     0.04 (  71->  82)    0.04 (  49->  79)    0.02 (  42->  78)
 308   9.975     124.3   0.024414   0.021212  -23.634710  -22.863700     0.03 (  44->  79)    0.02 (  72->  82)    0.02 (  52->  84)
 309   9.981     124.2   0.006858   0.005736  -0.173131  -0.205203     0.02 (  66->  89)    0.02 (  49->  79)    0.02 (  76-> 127)
 310   9.992     124.1   0.025266   0.019632  -18.355167  -13.635125     0.12 (  50->  84)    0.11 (  52->  84)    0.04 (  52->  83)

sTD-DFT done

Total run time:       54.681 sec

           *** ORCA-CIS/TD-DFT FINISHED WITHOUT ERROR ***


-------------------------------------------------------------------------------
                          DFT DISPERSION CORRECTION                            
                                                                               
                              DFTD3 V3.1  Rev 1                                
                              USING zero damping                               
-------------------------------------------------------------------------------
The omegaB97X-D3 functional is recognized. Fit by Chai et al.
Active option DFTDOPT                   ...         3   

molecular C6(AA) [au] = 47182.307462 


            DFT-D V3
 parameters
 s6 scaling factor         :     1.0000 
 rs6 scaling factor        :     1.2810 
 s8 scaling factor         :     1.0000 
 rs8 scaling factor        :     1.0940 
 Damping factor alpha6     :    14.0000 
 Damping factor alpha8     :    16.0000 
 ad hoc parameters k1-k3   :    16.0000     1.3333    -4.0000 

 Edisp/kcal,au: -12.323207954902  -0.019638279818 
 E6   /kcal   :  -5.659427310 
 E8   /kcal   :  -6.663780645 
 % E8         :  54.075048231 

-------------------------   ----------------
Dispersion correction           -0.019638280
-------------------------   ----------------


-------------------------   --------------------
FINAL SINGLE POINT ENERGY     -3507.921754944077
-------------------------   --------------------


                            ***************************************
                            *     ORCA property calculations      *
                            ***************************************

                                    ---------------------
                                    Active property flags
                                    ---------------------
   (+) Dipole Moment
   (+) Quadrupole Moment


------------------------------------------------------------------------------
                       ORCA ELECTRIC PROPERTIES CALCULATION
------------------------------------------------------------------------------

Dipole Moment Calculation                       ... on
Quadrupole Moment Calculation                   ... on
Polarizability Calculation                      ... off
GBWName                                         ... total_job2.gbw
Electron density file                           ... total_job2.scfp.tmp

-------------
DIPOLE MOMENT
-------------
                                X             Y             Z
Electronic contribution:     32.75587      -2.20865       7.48990
Nuclear contribution   :    -33.23109       2.32018      -7.80516
                        -----------------------------------------
Total Dipole Moment    :     -0.47522       0.11153      -0.31527
                        -----------------------------------------
Magnitude (a.u.)       :      0.58109
Magnitude (Debye)      :      1.47701


------------------------
QUADRUPOLE MOMENT (A.U.)
------------------------

                XX           YY           ZZ           XY           XZ           YZ
  NUC     33797.77368   1296.04094   2691.25517   2771.32451   -162.51556  -1496.94176
  EL     -33896.72284  -1467.04696  -2859.33962  -2759.23583    149.57558   1488.34279
  TOT       -98.94916   -171.00602   -168.08445     12.08868    -12.93998     -8.59896

--------------------------------------------------------------------------
[[28554,1],1]: A high-performance Open MPI point-to-point messaging module
was unable to find any relevant network interfaces:

Module: OpenFabrics (openib)
  Host: cx1-105-14-1

Another transport will be used instead, although this may result in
lower performance.
--------------------------------------------------------------------------

Timings for individual modules:

Sum of individual times         ...      209.109 sec (=   3.485 min)
GTO integral calculation        ...        5.997 sec (=   0.100 min)   2.9 %
SCF iterations                  ...      145.278 sec (=   2.421 min)  69.5 %
CIS module                      ...       57.834 sec (=   0.964 min)  27.7 %



                             ****ORCA TERMINATED NORMALLY****
TOTAL RUN TIME: 0 days 0 hours 12 minutes 46 seconds 128 msec
