
                                 *****************
                                 * O   R   C   A *
                                 *****************

           --- An Ab Initio, DFT and Semiempirical electronic structure package ---

                  #######################################################
                  #                        -***-                        #
                  #  Department of molecular theory and spectroscopy    #
                  #              Directorship: Frank Neese              #
                  # Max Planck Institute for Chemical Energy Conversion #
                  #                  D-45470 Muelheim/Ruhr              #
                  #                       Germany                       #
                  #                                                     #
                  #                  All rights reserved                #
                  #                        -***-                        #
                  #######################################################


                         Program Version 4.0.0 -  RELEASE  -


 With contributions from (in alphabetic order):
   Daniel Aravena         : Magnetic Properties
   Michael Atanasov       : Ab Initio Ligand Field Theory
   Ute Becker             : Parallelization
   Martin Brehm           : Molecular dynamics
   Dmytro Bykov           : SCF Hessian
   Vijay G. Chilkuri      : MRCI spin determinant printing
   Dipayan Datta          : RHF DLPNO-CCSD density
   Achintya Kumar Dutta   : EOM-CC, STEOM-CC
   Dmitry Ganyushin       : Spin-Orbit,Spin-Spin,Magnetic field MRCI
   Yang Guo               : DLPNO-NEVPT2, CIM, IAO-localization
   Andreas Hansen         : Spin unrestricted coupled pair/coupled cluster methods
   Lee Huntington         : MR-EOM, pCC
   Robert Izsak           : Overlap fitted RIJCOSX, COSX-SCS-MP3, EOM
   Christian Kollmar      : KDIIS, OOCD, Brueckner-CCSD(T), CCSD density
   Simone Kossmann        : Meta GGA functionals, TD-DFT gradient, OOMP2, MP2 Hessian
   Martin Krupicka        : AUTO-CI
   Dagmar Lenk            : GEPOL surface
   Dimitrios Liakos       : Extrapolation schemes; parallel MDCI
   Dimitrios Manganas     : ROCIS; embedding schemes
   Dimitrios Pantazis     : SARC Basis sets
   Taras Petrenko         : DFT Hessian,TD-DFT gradient, ASA, ECA, R-Raman, ABS, FL, XAS/XES, NRVS
   Peter Pinski           : DLPNO-MP2
   Christoph Reimann      : Effective Core Potentials
   Marius Retegan         : Local ZFS, SOC
   Christoph Riplinger    : Optimizer, TS searches, QM/MM, DLPNO-CCSD(T), (RO)-DLPNO pert. Triples
   Tobias Risthaus        : Range-separated hybrids, TD-DFT gradient, RPA, STAB
   Michael Roemelt        : Restricted open shell CIS
   Masaaki Saitow         : Open-shell DLPNO
   Barbara Sandhoefer     : DKH picture change effects
   Kantharuban Sivalingam : CASSCF convergence, NEVPT2, FIC-MRCI
   Georgi Stoychev        : AutoAux
   Boris Wezisla          : Elementary symmetry handling
   Frank Wennmohs         : Technical directorship


 We gratefully acknowledge several colleagues who have allowed us to
 interface, adapt or use parts of their codes:
   Stefan Grimme, W. Hujo, H. Kruse,             : VdW corrections, initial TS optimization,
                  C. Bannwarth                     DFT functionals, gCP, sTDA/sTD-DF
   Ed Valeev                                     : LibInt (2-el integral package), F12 methods
   Garnet Chan, S. Sharma, J. Yang, R. Olivares  : DMRG
   Ulf Ekstrom                                   : XCFun DFT Library
   Mihaly Kallay                                 : mrcc  (arbitrary order and MRCC methods)
   Jiri Pittner, Ondrej Demel                    : Mk-CCSD
   Frank Weinhold                                : gennbo (NPA and NBO analysis)
   Christopher J. Cramer and Donald G. Truhlar   : smd solvation model


 Your calculation uses the libint2 library for the computation of 2-el integrals
 For citations please refer to: http://libint.valeyev.net

 This ORCA versions uses:
   CBLAS   interface :  Fast vector & matrix operations
   LAPACKE interface :  Fast linear algebra routines
   SCALAPACK package :  Parallel linear algebra routines


Your calculation utilizes the atom-pairwise dispersion correction
with the zero-damping scheme (D30)
Cite in your paper:
S.Grimme, J.Antony, S.Ehrlich and H.Krieg, J.Chem.Phys., 132, (2010), 154104 
   

XCFun DFT library Copyright 2009-2010 Ulf Ekstrom and contributors.
See http://admol.org/xcfun for more information. This is free soft-
ware; see the source code for copying conditions. There is ABSOLUTELY
NO WARRANTY; not even for MERCHANTABILITY or FITNESS FOR A PARTICULAR
PURPOSE. For details see the documentation. Scientific users of this 
library should cite U. Ekstrom, L. Visscher, R. Bast, A. J. Thorvald-
sen and K. Ruud; J.Chem.Theor.Comp. 2010, DOI: 10.1021/ct100117s
XCFun Version 0.99 
Your calculation utilizes the basis: def2-TZVP
   F. Weigend and R. Ahlrichs, Phys. Chem. Chem. Phys. 7, 3297 (2005).

Your calculation utilizes the auxiliary basis: def2/J
   F. Weigend, Phys. Chem. Chem. Phys. 8, 1057 (2006).

================================================================================
                                        WARNINGS
                       Please study these warnings very carefully!
================================================================================

Warning: TCutStore was < 0. Adjusted to Thresh (uncritical)
INFO   : Checking CIS options ...

WARNING: CIS/ROCIS methods need fully converged wavefunctions
  ===> : Setting SCFConvForced true
         You can overwrite this default with %scf ConvForced false 


INFO   : the flag for use of LIBINT has been found!

Your calculation utilizes the atom-pairwise dispersion correction
with the zero-damping scheme (D30)
Cite in your paper:
S.Grimme, J.Antony, S.Ehrlich and H.Krieg, J.Chem.Phys., 132, (2010), 154104 
   

XCFun DFT library Copyright 2009-2010 Ulf Ekstrom and contributors.
See http://admol.org/xcfun for more information. This is free soft-
ware; see the source code for copying conditions. There is ABSOLUTELY
NO WARRANTY; not even for MERCHANTABILITY or FITNESS FOR A PARTICULAR
PURPOSE. For details see the documentation. Scientific users of this 
library should cite U. Ekstrom, L. Visscher, R. Bast, A. J. Thorvald-
sen and K. Ruud; J.Chem.Theor.Comp. 2010, DOI: 10.1021/ct100117s
XCFun Version 0.99 
Your calculation utilizes the basis: def2-TZVP
   F. Weigend and R. Ahlrichs, Phys. Chem. Chem. Phys. 7, 3297 (2005).

Your calculation utilizes the auxiliary basis: def2/J
   F. Weigend, Phys. Chem. Chem. Phys. 8, 1057 (2006).

================================================================================
                                        WARNINGS
                       Please study these warnings very carefully!
================================================================================

INFO   : Checking CIS options ...

INFO   : the flag for use of LIBINT has been found!

================================================================================
                                       INPUT FILE
================================================================================
NAME = total.inp
|  1> # 
|  2> !wB97X-D3 def2-TZVP def2/J RIJCOSX Grid5 FinalGrid6 TightSCF
|  3> %pal 
|  4>  nprocs 24
|  5> end
|  6> %tddft
|  7>   Mode sTDDFT
|  8>   nroots 2
|  9>   Ethresh 10.0
| 10>   maxcore 5000
| 11>   triplets true
| 12> end
| 13> * xyz 0 1 
| 14> C 5.13153554 -0.14682593 -3.00853551
| 15> C 4.47524350 -0.33644034 -1.79517071
| 16> C 5.22414282 -0.70527686 -0.66139678
| 17> C 6.63205855 -0.85973718 -0.80145725
| 18> C 7.29494948 -0.67614319 -2.02462130
| 19> C 6.52214179 -0.31822533 -3.12629860
| 20> C 4.91660681 -0.95928439 0.73762606
| 21> C 6.16510479 -1.23562455 1.37044254
| 22> N 7.17536203 -1.18794844 0.42824314
| 23> C 6.28989517 -1.48616833 2.74481531
| 24> C 5.12734866 -1.44222770 3.51150519
| 25> C 3.88710508 -1.17161290 2.92037020
| 26> C 3.74102291 -0.94393519 1.53823911
| 27> H 2.99938673 -1.16130951 3.54873249
| 28> H 8.15933542 -1.33453093 0.61710701
| 29> H 5.17883187 -1.62290202 4.58130973
| 30> H 3.39924273 -0.20357057 -1.73143599
| 31> H 8.37109312 -0.80384102 -2.10566021
| 32> H 7.00020578 -0.16690956 -4.09051066
| 33> H 4.55783126 0.13685554 -3.88664514
| 34> S -2.37489211 -0.06835524 -0.86449398
| 35> C -3.70276878 0.58683136 0.11881043
| 36> N -3.31132994 0.87125367 1.35824018
| 37> N -2.00003549 0.60841692 1.61738229
| 38> C -1.35313483 0.11181743 0.57098389
| 39> C 0.04514624 -0.25097112 0.58066115
| 40> N 0.68196046 -0.75116632 -0.47036429
| 41> N 2.00082703 -1.01824619 -0.22650737
| 42> C 2.39335792 -0.72364925 1.00362288
| 43> S 1.07378781 -0.07122858 2.00781039
| 44> C -5.76386528 -0.11870888 -3.84569079
| 45> S -7.40463795 0.41467259 -3.53115280
| 46> C -6.98358056 0.82757374 -1.86733587
| 47> C -5.61069806 0.55071438 -1.59388193
| 48> C -4.95031969 0.00852010 -2.75929539
| 49> C -5.08479587 0.82054796 -0.29631598
| 50> C -5.98702119 1.35803237 0.65409843
| 51> C -7.35254275 1.62646304 0.35986051
| 52> C -7.85985004 1.35727984 -0.92136452
| 53> S -5.62066788 1.78658687 2.32310066
| 54> C -7.28082377 2.31154491 2.59555295
| 55> C -8.06407020 2.17108003 1.49179741
| 56> H -3.90625589 -0.27965791 -2.79568568
| 57> H -9.11497004 2.43827399 1.45779178
| 58> H -7.59770565 2.69792253 3.55662133
| 59> H -5.47623152 -0.50122613 -4.81705063
| 60> H 7.25686285 -1.69521455 3.19358895
| 61> H -8.90028888 1.55635083 -1.16314263
| 62> *
| 63> $new_job
| 64> # 
| 65> !wB97X-D3 def2-TZVP def2/J RIJCOSX Grid5 FinalGrid6 TightSCF
| 66> %pal 
| 67>  nprocs 24
| 68> end
| 69> %elprop
| 70>    dipole     true
| 71>    quadrupole true
| 72> end
| 73> %tddft
| 74>   Mode sTDDFT
| 75>   nroots 2
| 76>   Ethresh 10.0
| 77>   maxcore 5000
| 78> end
| 79> * xyz 0 1 
| 80> C 5.13153554 -0.14682593 -3.00853551
| 81> C 4.47524350 -0.33644034 -1.79517071
| 82> C 5.22414282 -0.70527686 -0.66139678
| 83> C 6.63205855 -0.85973718 -0.80145725
| 84> C 7.29494948 -0.67614319 -2.02462130
| 85> C 6.52214179 -0.31822533 -3.12629860
| 86> C 4.91660681 -0.95928439 0.73762606
| 87> C 6.16510479 -1.23562455 1.37044254
| 88> N 7.17536203 -1.18794844 0.42824314
| 89> C 6.28989517 -1.48616833 2.74481531
| 90> C 5.12734866 -1.44222770 3.51150519
| 91> C 3.88710508 -1.17161290 2.92037020
| 92> C 3.74102291 -0.94393519 1.53823911
| 93> H 2.99938673 -1.16130951 3.54873249
| 94> H 8.15933542 -1.33453093 0.61710701
| 95> H 5.17883187 -1.62290202 4.58130973
| 96> H 3.39924273 -0.20357057 -1.73143599
| 97> H 8.37109312 -0.80384102 -2.10566021
| 98> H 7.00020578 -0.16690956 -4.09051066
| 99> H 4.55783126 0.13685554 -3.88664514
|100> S -2.37489211 -0.06835524 -0.86449398
|101> C -3.70276878 0.58683136 0.11881043
|102> N -3.31132994 0.87125367 1.35824018
|103> N -2.00003549 0.60841692 1.61738229
|104> C -1.35313483 0.11181743 0.57098389
|105> C 0.04514624 -0.25097112 0.58066115
|106> N 0.68196046 -0.75116632 -0.47036429
|107> N 2.00082703 -1.01824619 -0.22650737
|108> C 2.39335792 -0.72364925 1.00362288
|109> S 1.07378781 -0.07122858 2.00781039
|110> C -5.76386528 -0.11870888 -3.84569079
|111> S -7.40463795 0.41467259 -3.53115280
|112> C -6.98358056 0.82757374 -1.86733587
|113> C -5.61069806 0.55071438 -1.59388193
|114> C -4.95031969 0.00852010 -2.75929539
|115> C -5.08479587 0.82054796 -0.29631598
|116> C -5.98702119 1.35803237 0.65409843
|117> C -7.35254275 1.62646304 0.35986051
|118> C -7.85985004 1.35727984 -0.92136452
|119> S -5.62066788 1.78658687 2.32310066
|120> C -7.28082377 2.31154491 2.59555295
|121> C -8.06407020 2.17108003 1.49179741
|122> H -3.90625589 -0.27965791 -2.79568568
|123> H -9.11497004 2.43827399 1.45779178
|124> H -7.59770565 2.69792253 3.55662133
|125> H -5.47623152 -0.50122613 -4.81705063
|126> H 7.25686285 -1.69521455 3.19358895
|127> H -8.90028888 1.55635083 -1.16314263
|128> *
|129> 
|130>                          ****END OF INPUT****
================================================================================


                 $$$$$$$$$$$$$$$$$$$$$$$$$$$$$$$$$$$$$$$$$$$$$$ 
                 $ THERE ARE  2 JOBS TO BE PROCESSED THIS RUN $
                 $$$$$$$$$$$$$$$$$$$$$$$$$$$$$$$$$$$$$$$$$$$$$$ 




                 $$$$$$$$$$$$$$$$  JOB NUMBER  1 $$$$$$$$$$$$$$


                       ****************************
                       * Single Point Calculation *
                       ****************************

---------------------------------
CARTESIAN COORDINATES (ANGSTROEM)
---------------------------------
  C      5.131536   -0.146826   -3.008536
  C      4.475244   -0.336440   -1.795171
  C      5.224143   -0.705277   -0.661397
  C      6.632059   -0.859737   -0.801457
  C      7.294949   -0.676143   -2.024621
  C      6.522142   -0.318225   -3.126299
  C      4.916607   -0.959284    0.737626
  C      6.165105   -1.235625    1.370443
  N      7.175362   -1.187948    0.428243
  C      6.289895   -1.486168    2.744815
  C      5.127349   -1.442228    3.511505
  C      3.887105   -1.171613    2.920370
  C      3.741023   -0.943935    1.538239
  H      2.999387   -1.161310    3.548732
  H      8.159335   -1.334531    0.617107
  H      5.178832   -1.622902    4.581310
  H      3.399243   -0.203571   -1.731436
  H      8.371093   -0.803841   -2.105660
  H      7.000206   -0.166910   -4.090511
  H      4.557831    0.136856   -3.886645
  S     -2.374892   -0.068355   -0.864494
  C     -3.702769    0.586831    0.118810
  N     -3.311330    0.871254    1.358240
  N     -2.000035    0.608417    1.617382
  C     -1.353135    0.111817    0.570984
  C      0.045146   -0.250971    0.580661
  N      0.681960   -0.751166   -0.470364
  N      2.000827   -1.018246   -0.226507
  C      2.393358   -0.723649    1.003623
  S      1.073788   -0.071229    2.007810
  C     -5.763865   -0.118709   -3.845691
  S     -7.404638    0.414673   -3.531153
  C     -6.983581    0.827574   -1.867336
  C     -5.610698    0.550714   -1.593882
  C     -4.950320    0.008520   -2.759295
  C     -5.084796    0.820548   -0.296316
  C     -5.987021    1.358032    0.654098
  C     -7.352543    1.626463    0.359861
  C     -7.859850    1.357280   -0.921365
  S     -5.620668    1.786587    2.323101
  C     -7.280824    2.311545    2.595553
  C     -8.064070    2.171080    1.491797
  H     -3.906256   -0.279658   -2.795686
  H     -9.114970    2.438274    1.457792
  H     -7.597706    2.697923    3.556621
  H     -5.476232   -0.501226   -4.817051
  H      7.256863   -1.695215    3.193589
  H     -8.900289    1.556351   -1.163143

----------------------------
CARTESIAN COORDINATES (A.U.)
----------------------------
  NO LB      ZA    FRAG     MASS         X           Y           Z
   0 C     6.0000    0    12.011    9.697197   -0.277461   -5.685308
   1 C     6.0000    0    12.011    8.456985   -0.635780   -3.392381
   2 C     6.0000    0    12.011    9.872199   -1.332780   -1.249859
   3 C     6.0000    0    12.011   12.532774   -1.624668   -1.514535
   4 C     6.0000    0    12.011   13.785457   -1.277725   -3.825980
   5 C     6.0000    0    12.011   12.325062   -0.601359   -5.907848
   6 C     6.0000    0    12.011    9.291040   -1.812785    1.393911
   7 C     6.0000    0    12.011   11.650360   -2.334992    2.589761
   8 N     7.0000    0    14.007   13.559469   -2.244897    0.809262
   9 C     6.0000    0    12.011   11.886179   -2.808451    5.186949
  10 C     6.0000    0    12.011    9.689285   -2.725415    6.635783
  11 C     6.0000    0    12.011    7.345564   -2.214028    5.518700
  12 C     6.0000    0    12.011    7.069509   -1.783779    2.906851
  13 H     1.0000    0     1.008    5.668019   -2.194557    6.706133
  14 H     1.0000    0     1.008   15.418909   -2.521898    1.166163
  15 H     1.0000    0     1.008    9.786574   -3.066840    8.657421
  16 H     1.0000    0     1.008    6.423638   -0.384693   -3.271940
  17 H     1.0000    0     1.008   15.819073   -1.519039   -3.979121
  18 H     1.0000    0     1.008   13.228472   -0.315413   -7.729945
  19 H     1.0000    0     1.008    8.613053    0.258619   -7.344695
  20 S    16.0000    0    32.060   -4.487896   -0.129173   -1.633657
  21 C     6.0000    0    12.011   -6.997219    1.108951    0.224519
  22 N     7.0000    0    14.007   -6.257507    1.646431    2.566702
  23 N     7.0000    0    14.007   -3.779519    1.149741    3.056410
  24 C     6.0000    0    12.011   -2.557054    0.211304    1.079003
  25 C     6.0000    0    12.011    0.085314   -0.474267    1.097291
  26 N     7.0000    0    14.007    1.288719   -1.419499   -0.888860
  27 N     7.0000    0    14.007    3.781015   -1.924206   -0.428037
  28 C     6.0000    0    12.011    4.522791   -1.367499    1.896572
  29 S    16.0000    0    32.060    2.029165   -0.134603    3.794212
  30 C     6.0000    0    12.011  -10.892127   -0.224327   -7.267302
  31 S    16.0000    0    32.060  -13.992738    0.783618   -6.672912
  32 C     6.0000    0    12.011  -13.197055    1.563888   -3.528753
  33 C     6.0000    0    12.011  -10.602683    1.040699   -3.012000
  34 C     6.0000    0    12.011   -9.354748    0.016101   -5.214313
  35 C     6.0000    0    12.011   -9.608872    1.550611   -0.559956
  36 C     6.0000    0    12.011  -11.313830    2.566309    1.236067
  37 C     6.0000    0    12.011  -13.894292    3.073570    0.680038
  38 C     6.0000    0    12.011  -14.852964    2.564887   -1.741127
  39 S    16.0000    0    32.060  -10.621523    3.376160    4.390024
  40 C     6.0000    0    12.011  -13.758763    4.368187    4.904884
  41 C     6.0000    0    12.011  -15.238884    4.102747    2.819089
  42 H     1.0000    0     1.008   -7.381754   -0.528477   -5.283080
  43 H     1.0000    0     1.008  -17.224797    4.607670    2.754827
  44 H     1.0000    0     1.008  -14.357583    5.098335    6.721040
  45 H     1.0000    0     1.008  -10.348578   -0.947180   -9.102906
  46 H     1.0000    0     1.008   13.713483   -3.203491    6.035008
  47 H     1.0000    0     1.008  -16.819108    2.941077   -2.198021

--------------------------------
INTERNAL COORDINATES (ANGSTROEM)
--------------------------------
 C      0   0   0     0.000000000000     0.00000000     0.00000000
 C      1   0   0     1.392453591372     0.00000000     0.00000000
 C      2   1   0     1.407953796944   119.12194019     0.00000000
 C      3   2   1     1.423271452848   118.38236041     0.48984861
 C      4   3   2     1.403303755946   122.60600103   359.14676907
 C      5   4   3     1.392490500350   117.45569397     0.54284143
 C      3   2   1     1.454772535342   135.04812990   178.50317447
 C      7   3   2     1.426733257288   105.98431601   182.62675825
 N      8   7   3     1.382256275731   109.30242949   358.72028437
 C      8   7   3     1.402585232902   123.16663085   177.68912502
 C     10   8   7     1.393290543631   117.34412370   359.22327747
 C     11  10   8     1.400313209290   120.85119041     0.65354899
 C     12  11  10     1.408354887792   122.50646015     0.59454359
 H     12  11  10     1.087653067971   118.73952953   179.03430607
 H      9   8   7     1.012600424646   125.31597411   179.09334031
 H     11  10   8     1.086174702626   119.81390787   180.44728138
 H      2   1   3     1.086045186608   120.09526105   180.21879605
 H      5   4   3     1.086719455349   121.15851381   180.23108260
 H      6   5   4     1.086805657620   119.57572927   179.98030827
 H      1   2   3     1.086594818509   119.39940664   179.93611371
 S     17   2   1     5.840419915098   172.32885006   145.52993764
 C     21  17   2     1.777473908184   146.01972744    86.85066079
 N     22  21  17     1.330528662251   111.98345656   332.10436435
 N     23  22  21     1.362252151742   114.78119612     0.00000000
 C     24  23  22     1.326665417089   113.05118990     0.00000000
 C     25  24  23     1.444610373801   124.10398789   179.96407356
 N     26  25  24     1.326793904276   123.63782121   179.77008893
 N     27  26  25     1.367555075255   113.28151307   179.97442548
 C     28  27  26     1.324419981964   114.07974772   359.71886287
 S     26  25  24     1.768379431415   122.88206377   359.91495918
 C     21  17   2     4.513890678339   130.08867144   230.09720972
 S     31  21  17     1.753728854274   125.49156448   200.15551541
 C     32  31  21     1.765237508637    90.97556124   359.88761079
 C     33  32  31     1.426966895666   111.39078976     0.00000000
 C     31  21  17     1.363194265503    12.72188844   199.71611776
 C     34  33  32     1.425854364562   119.50687155   179.99767208
 C     36  34  33     1.416399509241   116.58380083     0.02480198
 C     37  36  34     1.422420510604   122.97778026   359.97151803
 C     33  32  31     1.394022434890   125.34847904   180.01534407
 S     37  36  34     1.761658920155   126.55264777   179.98593745
 C     40  37  36     1.762364540380    91.31949272   179.98043180
 C     41  40  37     1.360691605288   112.71129828     0.00000000
 H     35  31  32     1.083715847039   121.55913203   179.97677236
 H     42  41  40     1.084868410843   123.89012137   179.99534942
 H     41  40  37     1.083214762706   121.26413094   179.99805167
 H     31  21  17     1.082863133182   113.38803889    20.06523017
 H     10   8   7     1.086335397665   121.22283730   179.87649196
 H     39  33  32     1.086553677144   121.36791004     0.00000000

---------------------------
INTERNAL COORDINATES (A.U.)
---------------------------
 C      0   0   0     0.000000000000     0.00000000     0.00000000
 C      1   0   0     2.631355941889     0.00000000     0.00000000
 C      2   1   0     2.660647085439   119.12194019     0.00000000
 C      3   2   1     2.689593260111   118.38236041     0.48984861
 C      4   3   2     2.651859781441   122.60600103   359.14676907
 C      5   4   3     2.631425689749   117.45569397     0.54284143
 C      3   2   1     2.749121678946   135.04812990   178.50317447
 C      7   3   2     2.696135122432   105.98431601   182.62675825
 N      8   7   3     2.612085808025   109.30242949   358.72028437
 C      8   7   3     2.650501969667   123.16663085   177.68912502
 C     10   8   7     2.632937552445   117.34412370   359.22327747
 C     11  10   8     2.646208467271   120.85119041     0.65354899
 C     12  11  10     2.661405037296   122.50646015     0.59454359
 H     12  11  10     2.055366427184   118.73952953   179.03430607
 H      9   8   7     1.913537485674   125.31597411   179.09334031
 H     11  10   8     2.052572721556   119.81390787   180.44728138
 H      2   1   3     2.052327971752   120.09526105   180.21879605
 H      5   4   3     2.053602155013   121.15851381   180.23108260
 H      6   5   4     2.053765053698   119.57572927   179.98030827
 H      1   2   3     2.053366625520   119.39940664   179.93611371
 S     17   2   1    11.036794146635   172.32885006   145.52993764
 C     21  17   2     3.358938896659   146.01972744    86.85066079
 N     22  21  17     2.514334784987   111.98345656   332.10436435
 N     23  22  21     2.574283492138   114.78119612     0.00000000
 C     24  23  22     2.507034309642   113.05118990     0.00000000
 C     25  24  23     2.729917976705   124.10398789   179.96407356
 N     26  25  24     2.507277115238   123.63782121   179.77008893
 N     27  26  25     2.584304565285   113.28151307   179.97442548
 C     28  27  26     2.502791052206   114.07974772   359.71886287
 S     26  25  24     3.341752826233   122.88206377   359.91495918
 C     21  17   2     8.530017180521   130.08867144   230.09720972
 S     31  21  17     3.314067247732   125.49156448   200.15551541
 C     32  31  21     3.335815452650    90.97556124   359.88761079
 C     33  32  31     2.696576634981   111.39078976     0.00000000
 C     31  21  17     2.576063829133    12.72188844   199.71611776
 C     34  33  32     2.694474255879   119.50687155   179.99767208
 C     36  34  33     2.676607168686   116.58380083     0.02480198
 C     37  36  34     2.687985212314   122.97778026   359.97151803
 C     33  32  31     2.634320626485   125.34847904   180.01534407
 S     37  36  34     3.329052900473   126.55264777   179.98593745
 C     40  37  36     3.330386329452    91.31949272   179.98043180
 C     41  40  37     2.571334486720   112.71129828     0.00000000
 H     35  31  32     2.047926157895   121.55913203   179.97677236
 H     42  41  40     2.050104187835   123.89012137   179.99534942
 H     41  40  37     2.046979245736   121.26413094   179.99805167
 H     31  21  17     2.046314762233   113.38803889    20.06523017
 H     10   8   7     2.052876391171   121.22283730   179.87649196
 H     39  33  32     2.053288879607   121.36791004     0.00000000

---------------------
BASIS SET INFORMATION
---------------------
There are 4 groups of distinct atoms

 Group   1 Type C   : 11s6p2d1f contracted to 5s3p2d1f pattern {62111/411/11/1}
 Group   2 Type N   : 11s6p2d1f contracted to 5s3p2d1f pattern {62111/411/11/1}
 Group   3 Type H   : 5s1p contracted to 3s1p pattern {311/1}
 Group   4 Type S   : 14s9p3d1f contracted to 5s5p2d1f pattern {73211/51111/21/1}

Atom   0C    basis set group =>   1
Atom   1C    basis set group =>   1
Atom   2C    basis set group =>   1
Atom   3C    basis set group =>   1
Atom   4C    basis set group =>   1
Atom   5C    basis set group =>   1
Atom   6C    basis set group =>   1
Atom   7C    basis set group =>   1
Atom   8N    basis set group =>   2
Atom   9C    basis set group =>   1
Atom  10C    basis set group =>   1
Atom  11C    basis set group =>   1
Atom  12C    basis set group =>   1
Atom  13H    basis set group =>   3
Atom  14H    basis set group =>   3
Atom  15H    basis set group =>   3
Atom  16H    basis set group =>   3
Atom  17H    basis set group =>   3
Atom  18H    basis set group =>   3
Atom  19H    basis set group =>   3
Atom  20S    basis set group =>   4
Atom  21C    basis set group =>   1
Atom  22N    basis set group =>   2
Atom  23N    basis set group =>   2
Atom  24C    basis set group =>   1
Atom  25C    basis set group =>   1
Atom  26N    basis set group =>   2
Atom  27N    basis set group =>   2
Atom  28C    basis set group =>   1
Atom  29S    basis set group =>   4
Atom  30C    basis set group =>   1
Atom  31S    basis set group =>   4
Atom  32C    basis set group =>   1
Atom  33C    basis set group =>   1
Atom  34C    basis set group =>   1
Atom  35C    basis set group =>   1
Atom  36C    basis set group =>   1
Atom  37C    basis set group =>   1
Atom  38C    basis set group =>   1
Atom  39S    basis set group =>   4
Atom  40C    basis set group =>   1
Atom  41C    basis set group =>   1
Atom  42H    basis set group =>   3
Atom  43H    basis set group =>   3
Atom  44H    basis set group =>   3
Atom  45H    basis set group =>   3
Atom  46H    basis set group =>   3
Atom  47H    basis set group =>   3
-------------------------------
AUXILIARY BASIS SET INFORMATION
-------------------------------
There are 4 groups of distinct atoms

 Group   1 Type C   : 12s5p4d2f1g contracted to 6s4p3d1f1g pattern {711111/2111/211/2/1}
 Group   2 Type N   : 12s5p4d2f1g contracted to 6s4p3d1f1g pattern {711111/2111/211/2/1}
 Group   3 Type H   : 5s2p1d contracted to 3s1p1d pattern {311/2/1}
 Group   4 Type S   : 14s5p5d2f1g contracted to 8s4p3d1f1g pattern {71111111/2111/311/2/1}

Atom   0C    basis set group =>   1
Atom   1C    basis set group =>   1
Atom   2C    basis set group =>   1
Atom   3C    basis set group =>   1
Atom   4C    basis set group =>   1
Atom   5C    basis set group =>   1
Atom   6C    basis set group =>   1
Atom   7C    basis set group =>   1
Atom   8N    basis set group =>   2
Atom   9C    basis set group =>   1
Atom  10C    basis set group =>   1
Atom  11C    basis set group =>   1
Atom  12C    basis set group =>   1
Atom  13H    basis set group =>   3
Atom  14H    basis set group =>   3
Atom  15H    basis set group =>   3
Atom  16H    basis set group =>   3
Atom  17H    basis set group =>   3
Atom  18H    basis set group =>   3
Atom  19H    basis set group =>   3
Atom  20S    basis set group =>   4
Atom  21C    basis set group =>   1
Atom  22N    basis set group =>   2
Atom  23N    basis set group =>   2
Atom  24C    basis set group =>   1
Atom  25C    basis set group =>   1
Atom  26N    basis set group =>   2
Atom  27N    basis set group =>   2
Atom  28C    basis set group =>   1
Atom  29S    basis set group =>   4
Atom  30C    basis set group =>   1
Atom  31S    basis set group =>   4
Atom  32C    basis set group =>   1
Atom  33C    basis set group =>   1
Atom  34C    basis set group =>   1
Atom  35C    basis set group =>   1
Atom  36C    basis set group =>   1
Atom  37C    basis set group =>   1
Atom  38C    basis set group =>   1
Atom  39S    basis set group =>   4
Atom  40C    basis set group =>   1
Atom  41C    basis set group =>   1
Atom  42H    basis set group =>   3
Atom  43H    basis set group =>   3
Atom  44H    basis set group =>   3
Atom  45H    basis set group =>   3
Atom  46H    basis set group =>   3
Atom  47H    basis set group =>   3
-------------------------
ECP PARAMETER INFORMATION
-------------------------



--------------------------------------------------------------------------
[[54265,1],9]: A high-performance Open MPI point-to-point messaging module
was unable to find any relevant network interfaces:

Module: OpenFabrics (openib)
  Host: cx1-108-1-3

Another transport will be used instead, although this may result in
lower performance.
--------------------------------------------------------------------------


           ************************************************************
           *        Program running with 24 parallel MPI-processes    *
           *              working on a common directory               *
           ************************************************************
------------------------------------------------------------------------------
                           ORCA GTO INTEGRAL CALCULATION
                           -- RI-GTO INTEGRALS CHOSEN --
------------------------------------------------------------------------------

                         BASIS SET STATISTICS AND STARTUP INFO

Gaussian basis set:
 # of primitive gaussian shells          ...  806
 # of primitive gaussian functions       ... 1782
 # of contracted shells                  ...  445
 # of contracted basis functions         ... 1187
 Highest angular momentum                ...    3
 Maximum contraction depth               ...    7
Auxiliary gaussian basis set:
 # of primitive gaussian shells          ...  956
 # of primitive gaussian functions       ... 2686
 # of contracted shells                  ...  598
 # of contracted aux-basis functions     ... 1866
 Highest angular momentum                ...    4
 Maximum contraction depth               ...    7
Ratio of auxiliary to basis functions    ...  1.57
Integral package used                  ... LIBINT
 One Electron integrals                  
   ECP integrals                         ... done
 Ordering auxiliary basis shells         ... done
 Integral threshhold             Thresh  ...  2.500e-11
 Primitive cut-off               TCut    ...  2.500e-12
 Pre-screening matrix                    ... done
 Shell pair data                         ... 
 Ordering of the shell pairs             ... done (   0.013 sec) 47525 of 99235 pairs
 Determination of significant pairs      ... done (   0.000 sec)
 Creation of shell pair data             ... done (   0.013 sec)
 Storage of shell pair data              ... done (   0.121 sec)
 Shell pair data done in (   0.147 sec)
 Computing two index integrals           ... done
 Cholesky decomposition of the V-matrix  ... done


Timings:
 Total evaluation time                   ...   6.240 sec (  0.104 min)
 One electron matrix time                ...   1.760 sec (  0.029 min) = 28.2%
 Schwartz matrix evaluation time         ...   2.535 sec (  0.042 min) = 40.6%
 Two index repulsion integral time       ...   1.128 sec (  0.019 min) = 18.1%
 Cholesky decomposition of V             ...   0.621 sec (  0.010 min) = 10.0%
 Three index repulsion integral time     ...   0.000 sec (  0.000 min) =  0.0%

--------------------------------------------------------------------------
[[54100,1],1]: A high-performance Open MPI point-to-point messaging module
was unable to find any relevant network interfaces:

Module: OpenFabrics (openib)
  Host: cx1-108-1-3

Another transport will be used instead, although this may result in
lower performance.
--------------------------------------------------------------------------


           ************************************************************
           *        Program running with 24 parallel MPI-processes    *
           *              working on a common directory               *
           ************************************************************
-------------------------------------------------------------------------------
                                 ORCA SCF
-------------------------------------------------------------------------------

------------
SCF SETTINGS
------------
Hamiltonian:
 Density Functional     Method          .... DFT(GTOs)
 Exchange Functional    Exchange        .... WB97X-D3
 Correlation Functional Correlation     .... WB97X-D3
 Gradients option       PostSCFGGA      .... off
 Hybrid DFT is turned on
   Fraction HF Exchange ScalHFX         ....  0.195728
   Scaling of DF-GGA-X  ScalDFX         ....  0.000000
   Scaling of DF-GGA-C  ScalDFC         ....  1.000000
   Scaling of DF-LDA-C  ScalLDAC        ....  1.000000
   Perturbative correction              ....  0.000000
 Long-range corrected/Screened/Range-Separated Hybrid DFT is turned on
   Amount of maximum screened exact exchange              ....  0.804272
   Range separation parameter mu (erf(mu*r12)/r12)        ....  0.250000
 RI-approximation to the Coulomb term is turned on
   Number of auxiliary basis functions  .... 1866
   RIJ-COSX (HFX calculated with COS-X)).... on


General Settings:
 Integral files         IntName         .... total
 Hartree-Fock type      HFTyp           .... RHF
 Total Charge           Charge          ....    0
 Multiplicity           Mult            ....    1
 Number of Electrons    NEL             ....  268
 Basis Dimension        Dim             .... 1187
 Nuclear Repulsion      ENuc            ....   3812.1257353024 Eh

Convergence Acceleration:
 DIIS                   CNVDIIS         .... on
   Start iteration      DIISMaxIt       ....    12
   Startup error        DIISStart       ....  0.200000
   # of expansion vecs  DIISMaxEq       ....     5
   Bias factor          DIISBfac        ....   1.050
   Max. coefficient     DIISMaxC        ....  10.000
 Newton-Raphson         CNVNR           .... off
 SOSCF                  CNVSOSCF        .... on
   Start iteration      SOSCFMaxIt      ....   150
   Startup grad/error   SOSCFStart      ....  0.003300
 Level Shifting         CNVShift        .... on
   Level shift para.    LevelShift      ....    0.2500
   Turn off err/grad.   ShiftErr        ....    0.0010
 Zerner damping         CNVZerner       .... off
 Static damping         CNVDamp         .... on
   Fraction old density DampFac         ....    0.7000
   Max. Damping (<1)    DampMax         ....    0.9800
   Min. Damping (>=0)   DampMin         ....    0.0000
   Turn off err/grad.   DampErr         ....    0.1000
 Fernandez-Rico         CNVRico         .... off

SCF Procedure:
 Maximum # iterations   MaxIter         ....   125
 SCF integral mode      SCFMode         .... Direct
   Integral package                     .... LIBINT
 Reset frequeny         DirectResetFreq ....    20
 Integral Threshold     Thresh          ....  2.500e-11 Eh
 Primitive CutOff       TCut            ....  2.500e-12 Eh

Convergence Tolerance:
 Convergence Check Mode ConvCheckMode   .... Total+1el-Energy
 Convergence forced     ConvForced      .... 1
 Energy Change          TolE            ....  1.000e-08 Eh
 1-El. energy change                    ....  1.000e-05 Eh
 Orbital Gradient       TolG            ....  1.000e-05
 Orbital Rotation angle TolX            ....  1.000e-05
 DIIS Error             TolErr          ....  5.000e-07


Diagonalization of the overlap matrix:
Smallest eigenvalue                        ... 4.697e-06
Time for diagonalization                   ...    0.489 sec
Threshold for overlap eigenvalues          ... 1.000e-08
Number of eigenvalues below threshold      ... 0
Time for construction of square roots      ...    0.543 sec
Total time needed                          ...    1.042 sec

-------------------
DFT GRID GENERATION
-------------------

General Integration Accuracy     IntAcc      ...  5.010
Radial Grid Type                 RadialGrid  ... Gauss-Chebyshev
Angular Grid (max. acc.)         AngularGrid ... Lebedev-434
Angular grid pruning method      GridPruning ... 3 (G Style)
Weight generation scheme         WeightScheme... Becke
Basis function cutoff            BFCut       ...    1.0000e-11
Integration weight cutoff        WCut        ...    1.0000e-14
Grids for H and He will be reduced by one unit

# of grid points (after initial pruning)     ... 465054 (   0.0 sec)
# of grid points (after weights+screening)   ... 409316 (   1.3 sec)
nearest neighbour list constructed           ...    0.0 sec
Grid point re-assignment to atoms done       ...    0.2 sec
Grid point division into batches done        ...    5.3 sec
Reduced shell lists constructed in    6.3 sec

Total number of grid points                  ...   409316
Total number of batches                      ...     6418
Average number of points per batch           ...       63
Average number of grid points per atom       ...     8527
Average number of shells per batch           ...   131.78 (29.61%)
Average number of basis functions per batch  ...   345.46 (29.10%)
Average number of large shells per batch     ...    91.45 (69.40%)
Average number of large basis fcns per batch ...   238.19 (68.95%)
Maximum spatial batch extension              ...   9.68, 23.31, 13.60 au
Average spatial batch extension              ...   0.06,  0.06,  0.06 au

Time for grid setup =    8.125 sec

------------------------------
INITIAL GUESS: MODEL POTENTIAL
------------------------------
Loading Hartree-Fock densities                     ... done
Calculating cut-offs                               ... done
Setting up the integral package                    ... done
Initializing the effective Hamiltonian             ... done
Starting the Coulomb interaction                   ... done (   0.7 sec)
Reading the grid                                   ... done
Mapping shells                                     ... done
Starting the XC term evaluation                    ... done (   2.3 sec)
  promolecular density results
     # of electrons  =    267.993651954
     EX              =   -269.123725588
     EC              =     -9.439133916
     EX+EC           =   -278.562859504
Transforming the Hamiltonian                       ... done (   0.3 sec)
Diagonalizing the Hamiltonian                      ... done (   0.5 sec)
Back transforming the eigenvectors                 ... done (   0.1 sec)
Now organizing SCF variables                       ... done
                      ------------------
                      INITIAL GUESS DONE (  12.3 sec)
                      ------------------
--------------------
COSX GRID GENERATION
--------------------

General Integration Accuracy     IntAcc      ...  3.340
Radial Grid Type                 RadialGrid  ... Gauss-Chebyshev
Angular Grid (max. acc.)         AngularGrid ... Lebedev-50
Angular grid pruning method      GridPruning ... 3 (G Style)
Weight generation scheme         WeightScheme... Becke
Basis function cutoff            BFCut       ...    1.0000e-11
Integration weight cutoff        WCut        ...    1.0000e-14
Grids for H and He will be reduced by one unit

# of grid points (after initial pruning)     ...  24894 (   0.0 sec)
# of grid points (after weights+screening)   ...  22842 (   0.1 sec)
nearest neighbour list constructed           ...    0.0 sec
Grid point re-assignment to atoms done       ...    0.0 sec
Grid point division into batches done        ...    0.0 sec
Reduced shell lists constructed in    0.1 sec

Total number of grid points                  ...    22842
Total number of batches                      ...      382
Average number of points per batch           ...       59
Average number of grid points per atom       ...      476
Average number of shells per batch           ...   145.82 (32.77%)
Average number of basis functions per batch  ...   387.82 (32.67%)
Average number of large shells per batch     ...   103.24 (70.79%)
Average number of large basis fcns per batch ...   272.76 (70.33%)
Maximum spatial batch extension              ...   4.19, 16.56,  5.54 au
Average spatial batch extension              ...   0.10,  0.30,  0.13 au

Overlap Fitting                  UseSFitting ... on
Constructing numerical overlap ... done (      0.1 sec)
Inverting numerical overlap    ... done (      0.2 sec)
Obtaining analytic overlap     ... done (      0.0 sec)
Final contraction and storage  ... done (      0.6 sec)


General Integration Accuracy     IntAcc      ...  3.670
Radial Grid Type                 RadialGrid  ... Gauss-Chebyshev
Angular Grid (max. acc.)         AngularGrid ... Lebedev-50
Angular grid pruning method      GridPruning ... 3 (G Style)
Weight generation scheme         WeightScheme... Becke
Basis function cutoff            BFCut       ...    1.0000e-11
Integration weight cutoff        WCut        ...    1.0000e-14
Grids for H and He will be reduced by one unit

# of grid points (after initial pruning)     ...  31034 (   0.0 sec)
# of grid points (after weights+screening)   ...  28397 (   0.1 sec)
nearest neighbour list constructed           ...    0.0 sec
Grid point re-assignment to atoms done       ...    0.0 sec
Grid point division into batches done        ...    0.0 sec
Reduced shell lists constructed in    0.1 sec

Total number of grid points                  ...    28397
Total number of batches                      ...      473
Average number of points per batch           ...       60
Average number of grid points per atom       ...      592
Average number of shells per batch           ...   145.05 (32.59%)
Average number of basis functions per batch  ...   384.57 (32.40%)
Average number of large shells per batch     ...   101.76 (70.16%)
Average number of large basis fcns per batch ...   268.43 (69.80%)
Maximum spatial batch extension              ...   4.31, 17.25,  5.35 au
Average spatial batch extension              ...   0.10,  0.23,  0.12 au

Overlap Fitting                  UseSFitting ... on
Constructing numerical overlap ... done (      0.1 sec)
Inverting numerical overlap    ... done (      0.2 sec)
Obtaining analytic overlap     ... done (      0.0 sec)
Final contraction and storage  ... done (      0.6 sec)


General Integration Accuracy     IntAcc      ...  4.010
Radial Grid Type                 RadialGrid  ... Gauss-Chebyshev
Angular Grid (max. acc.)         AngularGrid ... Lebedev-110
Angular grid pruning method      GridPruning ... 3 (G Style)
Weight generation scheme         WeightScheme... Becke
Basis function cutoff            BFCut       ...    1.0000e-11
Integration weight cutoff        WCut        ...    1.0000e-14
Grids for H and He will be reduced by one unit

# of grid points (after initial pruning)     ...  60720 (   0.0 sec)
# of grid points (after weights+screening)   ...  54881 (   0.2 sec)
nearest neighbour list constructed           ...    0.0 sec
Grid point re-assignment to atoms done       ...    0.0 sec
Grid point division into batches done        ...    0.1 sec
Reduced shell lists constructed in    0.2 sec

Total number of grid points                  ...    54881
Total number of batches                      ...      880
Average number of points per batch           ...       62
Average number of grid points per atom       ...     1143
Average number of shells per batch           ...   144.53 (32.48%)
Average number of basis functions per batch  ...   384.79 (32.42%)
Average number of large shells per batch     ...   102.34 (70.81%)
Average number of large basis fcns per batch ...   270.13 (70.20%)
Maximum spatial batch extension              ...   4.24, 17.81,  5.38 au
Average spatial batch extension              ...   0.09,  0.19,  0.10 au

Overlap Fitting                  UseSFitting ... on
Constructing numerical overlap ... done (      0.2 sec)
Inverting numerical overlap    ... done (      0.2 sec)
Obtaining analytic overlap     ... done (      0.0 sec)
Final contraction and storage  ... done (      0.6 sec)

Time for X-Grid setup             =    4.164 sec
--------------
SCF ITERATIONS
--------------
ITER       Energy         Delta-E        Max-DP      RMS-DP      [F,P]     Damp
               ***  Starting incremental Fock matrix formation  ***
  0  -2864.4811470452   0.000000000000 0.17963569  0.00100228  0.1533896 0.7000
  1  -2864.7750367151  -0.293889669848 0.17563250  0.00091212  0.0960039 0.7000
                               ***Turning on DIIS***
  2  -2864.9179432652  -0.142906550105 0.44549369  0.00226448  0.0541357 0.0000
  3  -2865.1447424243  -0.226799159106 0.05157079  0.00036085  0.0427617 0.0000
  4  -2865.1880489850  -0.043306560752 0.03382955  0.00019906  0.0080120 0.0000
  5  -2865.1899238290  -0.001874843947 0.01765525  0.00009192  0.0053235 0.0000
                      *** Initiating the SOSCF procedure ***
                           *** Shutting down DIIS ***
                      *** Re-Reading the Fockian *** 
                      *** Removing any level shift *** 
ITER      Energy       Delta-E        Grad      Rot      Max-DP    RMS-DP
  6  -2865.19050093  -0.0005770989  0.002118  0.002118  0.010314  0.000053
               *** Restarting incremental Fock matrix formation ***
  7  -2865.19071676  -0.0002158355  0.001107  0.003112  0.060978  0.000394
  8  -2865.19080033  -0.0000835676  0.000559  0.003973  0.046219  0.000283
  9  -2865.19081758  -0.0000172487  0.000303  0.001024  0.036865  0.000227
 10  -2865.19083172  -0.0000141373  0.000073  0.000195  0.005031  0.000030
 11  -2865.19083233  -0.0000006108  0.000045  0.000085  0.002834  0.000019
 12  -2865.19083261  -0.0000002849  0.000011  0.000043  0.000891  0.000005
 13  -2865.19083261   0.0000000020  0.000007  0.000015  0.000585  0.000004
 14  -2865.19083273  -0.0000001147  0.000003  0.000013  0.000423  0.000003
                  ***Gradient check signals convergence***
              ***Rediagonalizing the Fockian in SOSCF/NRSCF***

               *****************************************************
               *                     SUCCESS                       *
               *           SCF CONVERGED AFTER  15 CYCLES          *
               *****************************************************

Old exchange energy                            =    -82.094105575 Eh
New exchange energy                            =    -82.095394954 Eh
Exchange energy change after final integration =     -0.001289379 Eh
Total energy after final integration           =  -2865.192122145 Eh
Final COS-X integration done in                =    53.218 sec

----------------
TOTAL SCF ENERGY
----------------

Total Energy       :        -2865.19212215 Eh          -77965.84135 eV

Components:
Nuclear Repulsion  :         3812.12573530 Eh          103733.21495 eV
Electronic Energy  :        -6677.31785745 Eh         -181699.05630 eV
One Electron Energy:       -11511.93787305 Eh         -313255.75514 eV
Two Electron Energy:         4834.62001560 Eh          131556.69884 eV

Virial components:
Potential Energy   :        -5720.55703415 Eh         -155664.27072 eV
Kinetic Energy     :         2855.36491201 Eh           77698.42937 eV
Virial Ratio       :            2.00344167


DFT components:
N(Alpha)           :      133.999983987147 electrons
N(Beta)            :      133.999983987147 electrons
N(Total)           :      267.999967974294 electrons
E(XC)              :     -200.882264189571 Eh       

---------------
SCF CONVERGENCE
---------------

  Last Energy change         ...   -4.0464e-08  Tolerance :   1.0000e-08
  Last MAX-Density change    ...    7.8833e-14  Tolerance :   1.0000e-07
  Last RMS-Density change    ...    1.2010e-16  Tolerance :   5.0000e-09
  Last Orbital Gradient      ...    1.9524e-06  Tolerance :   1.0000e-05
  Last Orbital Rotation      ...    7.2715e-06  Tolerance :   1.0000e-05

             **** THE GBW FILE WAS UPDATED (total.gbw) ****
             **** DENSITY FILE WAS UPDATED (total.scfp.tmp) ****
             **** ENERGY FILE WAS UPDATED (total.en.tmp) ****
----------------
ORBITAL ENERGIES
----------------

  NO   OCC          E(Eh)            E(eV) 
   0   2.0000     -89.012834     -2422.1624 
   1   2.0000     -89.009090     -2422.0605 
   2   2.0000     -88.986178     -2421.4370 
   3   2.0000     -88.974026     -2421.1063 
   4   2.0000     -14.477487      -393.9524 
   5   2.0000     -14.474743      -393.8778 
   6   2.0000     -14.472135      -393.8068 
   7   2.0000     -14.467947      -393.6928 
   8   2.0000     -14.465697      -393.6316 
   9   2.0000     -10.381560      -282.4966 
  10   2.0000     -10.380793      -282.4757 
  11   2.0000     -10.380388      -282.4647 
  12   2.0000     -10.376328      -282.3542 
  13   2.0000     -10.336125      -281.2603 
  14   2.0000     -10.333737      -281.1953 
  15   2.0000     -10.332875      -281.1718 
  16   2.0000     -10.330994      -281.1206 
  17   2.0000     -10.329874      -281.0902 
  18   2.0000     -10.327364      -281.0219 
  19   2.0000     -10.322313      -280.8844 
  20   2.0000     -10.322191      -280.8811 
  21   2.0000     -10.312784      -280.6251 
  22   2.0000     -10.312334      -280.6129 
  23   2.0000     -10.308921      -280.5200 
  24   2.0000     -10.306555      -280.4556 
  25   2.0000     -10.302778      -280.3528 
  26   2.0000     -10.300770      -280.2982 
  27   2.0000     -10.297406      -280.2067 
  28   2.0000     -10.296368      -280.1784 
  29   2.0000     -10.290777      -280.0263 
  30   2.0000     -10.290326      -280.0140 
  31   2.0000     -10.285681      -279.8876 
  32   2.0000     -10.284733      -279.8618 
  33   2.0000     -10.278817      -279.7008 
  34   2.0000     -10.272131      -279.5189 
  35   2.0000      -8.109019      -220.6576 
  36   2.0000      -8.105321      -220.5570 
  37   2.0000      -8.082973      -219.9489 
  38   2.0000      -8.069558      -219.5838 
  39   2.0000      -6.062116      -164.9586 
  40   2.0000      -6.058401      -164.8575 
  41   2.0000      -6.058308      -164.8549 
  42   2.0000      -6.055977      -164.7915 
  43   2.0000      -6.054494      -164.7511 
  44   2.0000      -6.052398      -164.6941 
  45   2.0000      -6.036573      -164.2635 
  46   2.0000      -6.032429      -164.1508 
  47   2.0000      -6.029326      -164.0663 
  48   2.0000      -6.023421      -163.9056 
  49   2.0000      -6.018731      -163.7780 
  50   2.0000      -6.015921      -163.7015 
  51   2.0000      -1.160156       -31.5695 
  52   2.0000      -1.151524       -31.3346 
  53   2.0000      -1.109288       -30.1852 
  54   2.0000      -1.033089       -28.1118 
  55   2.0000      -0.999579       -27.1999 
  56   2.0000      -0.994960       -27.0742 
  57   2.0000      -0.982144       -26.7255 
  58   2.0000      -0.966064       -26.2879 
  59   2.0000      -0.958865       -26.0920 
  60   2.0000      -0.939062       -25.5532 
  61   2.0000      -0.927203       -25.2305 
  62   2.0000      -0.918868       -25.0037 
  63   2.0000      -0.903385       -24.5824 
  64   2.0000      -0.899845       -24.4860 
  65   2.0000      -0.876498       -23.8507 
  66   2.0000      -0.860108       -23.4047 
  67   2.0000      -0.848337       -23.0844 
  68   2.0000      -0.842629       -22.9291 
  69   2.0000      -0.840225       -22.8637 
  70   2.0000      -0.817510       -22.2456 
  71   2.0000      -0.787986       -21.4422 
  72   2.0000      -0.774370       -21.0717 
  73   2.0000      -0.758745       -20.6465 
  74   2.0000      -0.733058       -19.9475 
  75   2.0000      -0.725697       -19.7472 
  76   2.0000      -0.718937       -19.5633 
  77   2.0000      -0.713807       -19.4237 
  78   2.0000      -0.699899       -19.0452 
  79   2.0000      -0.681210       -18.5367 
  80   2.0000      -0.671780       -18.2801 
  81   2.0000      -0.665372       -18.1057 
  82   2.0000      -0.659334       -17.9414 
  83   2.0000      -0.644959       -17.5502 
  84   2.0000      -0.627250       -17.0683 
  85   2.0000      -0.623412       -16.9639 
  86   2.0000      -0.617851       -16.8126 
  87   2.0000      -0.607979       -16.5440 
  88   2.0000      -0.593008       -16.1366 
  89   2.0000      -0.579283       -15.7631 
  90   2.0000      -0.574513       -15.6333 
  91   2.0000      -0.570400       -15.5214 
  92   2.0000      -0.562270       -15.3001 
  93   2.0000      -0.557086       -15.1591 
  94   2.0000      -0.553604       -15.0643 
  95   2.0000      -0.547468       -14.8974 
  96   2.0000      -0.546158       -14.8617 
  97   2.0000      -0.539677       -14.6854 
  98   2.0000      -0.538386       -14.6502 
  99   2.0000      -0.531544       -14.4640 
 100   2.0000      -0.529155       -14.3990 
 101   2.0000      -0.526844       -14.3361 
 102   2.0000      -0.520469       -14.1627 
 103   2.0000      -0.518240       -14.1020 
 104   2.0000      -0.513435       -13.9713 
 105   2.0000      -0.486151       -13.2289 
 106   2.0000      -0.486073       -13.2267 
 107   2.0000      -0.479233       -13.0406 
 108   2.0000      -0.477222       -12.9859 
 109   2.0000      -0.473834       -12.8937 
 110   2.0000      -0.469846       -12.7852 
 111   2.0000      -0.462826       -12.5941 
 112   2.0000      -0.451854       -12.2956 
 113   2.0000      -0.451022       -12.2729 
 114   2.0000      -0.447768       -12.1844 
 115   2.0000      -0.441621       -12.0171 
 116   2.0000      -0.439162       -11.9502 
 117   2.0000      -0.434173       -11.8145 
 118   2.0000      -0.415672       -11.3110 
 119   2.0000      -0.411757       -11.2045 
 120   2.0000      -0.406697       -11.0668 
 121   2.0000      -0.400423       -10.8961 
 122   2.0000      -0.396585       -10.7916 
 123   2.0000      -0.393083       -10.6963 
 124   2.0000      -0.380578       -10.3560 
 125   2.0000      -0.373500       -10.1634 
 126   2.0000      -0.366329        -9.9683 
 127   2.0000      -0.358359        -9.7514 
 128   2.0000      -0.347272        -9.4498 
 129   2.0000      -0.332493        -9.0476 
 130   2.0000      -0.319364        -8.6903 
 131   2.0000      -0.302389        -8.2284 
 132   2.0000      -0.293154        -7.9771 
 133   2.0000      -0.285521        -7.7694 
 134   0.0000      -0.040368        -1.0985 
 135   0.0000      -0.007718        -0.2100 
 136   0.0000       0.019492         0.5304 
 137   0.0000       0.037813         1.0289 
 138   0.0000       0.048352         1.3157 
 139   0.0000       0.063090         1.7168 
 140   0.0000       0.071313         1.9405 
 141   0.0000       0.077790         2.1168 
 142   0.0000       0.081947         2.2299 
 143   0.0000       0.085787         2.3344 
 144   0.0000       0.091146         2.4802 
 145   0.0000       0.094702         2.5770 
 146   0.0000       0.107072         2.9136 
 147   0.0000       0.108758         2.9595 
 148   0.0000       0.116248         3.1633 
 149   0.0000       0.119686         3.2568 
 150   0.0000       0.125700         3.4205 
 151   0.0000       0.129382         3.5207 
 152   0.0000       0.132976         3.6185 
 153   0.0000       0.138378         3.7655 
 154   0.0000       0.141392         3.8475 
 155   0.0000       0.145845         3.9687 
 156   0.0000       0.147863         4.0236 
 157   0.0000       0.154315         4.1991 
 158   0.0000       0.154997         4.2177 
 159   0.0000       0.159092         4.3291 
 160   0.0000       0.164902         4.4872 
 161   0.0000       0.169506         4.6125 
 162   0.0000       0.172305         4.6886 
 163   0.0000       0.174433         4.7466 
 164   0.0000       0.183466         4.9924 
 165   0.0000       0.188810         5.1378 
 166   0.0000       0.192569         5.2401 
 167   0.0000       0.195789         5.3277 
 168   0.0000       0.199873         5.4388 
 169   0.0000       0.200316         5.4509 
 170   0.0000       0.212750         5.7892 
 171   0.0000       0.214946         5.8490 
 172   0.0000       0.219080         5.9615 
 173   0.0000       0.219845         5.9823 
 174   0.0000       0.225933         6.1479 
 175   0.0000       0.236416         6.4332 
 176   0.0000       0.241674         6.5763 
 177   0.0000       0.245009         6.6670 
 178   0.0000       0.249505         6.7894 
 179   0.0000       0.255901         6.9634 
 180   0.0000       0.258177         7.0254 
 181   0.0000       0.259922         7.0728 
 182   0.0000       0.262805         7.1513 
 183   0.0000       0.265093         7.2136 
 184   0.0000       0.267431         7.2772 
 185   0.0000       0.269450         7.3321 
 186   0.0000       0.272214         7.4073 
 187   0.0000       0.276267         7.5176 
 188   0.0000       0.280994         7.6462 
 189   0.0000       0.287627         7.8267 
 190   0.0000       0.289408         7.8752 
 191   0.0000       0.289843         7.8870 
 192   0.0000       0.292197         7.9511 
 193   0.0000       0.293283         7.9806 
 194   0.0000       0.296127         8.0580 
 195   0.0000       0.297772         8.1028 
 196   0.0000       0.298380         8.1193 
 197   0.0000       0.303531         8.2595 
 198   0.0000       0.307021         8.3545 
 199   0.0000       0.307947         8.3797 
 200   0.0000       0.311802         8.4846 
 201   0.0000       0.316532         8.6133 
 202   0.0000       0.324011         8.8168 
 203   0.0000       0.326715         8.8904 
 204   0.0000       0.327962         8.9243 
 205   0.0000       0.332525         9.0485 
 206   0.0000       0.334494         9.1020 
 207   0.0000       0.336528         9.1574 
 208   0.0000       0.339941         9.2503 
 209   0.0000       0.344229         9.3670 
 210   0.0000       0.348248         9.4763 
 211   0.0000       0.349866         9.5203 
 212   0.0000       0.351357         9.5609 
 213   0.0000       0.357698         9.7335 
 214   0.0000       0.361958         9.8494 
 215   0.0000       0.367267         9.9938 
 216   0.0000       0.368623        10.0307 
 217   0.0000       0.368657        10.0317 
 218   0.0000       0.370674        10.0866 
 219   0.0000       0.374545        10.1919 
 220   0.0000       0.376465        10.2441 
 221   0.0000       0.377487        10.2719 
 222   0.0000       0.379121        10.3164 
 223   0.0000       0.381152        10.3717 
 224   0.0000       0.383019        10.4225 
 225   0.0000       0.387387        10.5413 
 226   0.0000       0.390183        10.6174 
 227   0.0000       0.392833        10.6895 
 228   0.0000       0.396282        10.7834 
 229   0.0000       0.396999        10.8029 
 230   0.0000       0.399911        10.8821 
 231   0.0000       0.403197        10.9716 
 232   0.0000       0.407590        11.0911 
 233   0.0000       0.408536        11.1168 
 234   0.0000       0.413777        11.2594 
 235   0.0000       0.416437        11.3318 
 236   0.0000       0.419289        11.4094 
 237   0.0000       0.421885        11.4801 
 238   0.0000       0.423944        11.5361 
 239   0.0000       0.429963        11.6999 
 240   0.0000       0.431669        11.7463 
 241   0.0000       0.434525        11.8240 
 242   0.0000       0.435167        11.8415 
 243   0.0000       0.440130        11.9765 
 244   0.0000       0.441983        12.0270 
 245   0.0000       0.447667        12.1816 
 246   0.0000       0.449208        12.2236 
 247   0.0000       0.455361        12.3910 
 248   0.0000       0.455778        12.4024 
 249   0.0000       0.458409        12.4740 
 250   0.0000       0.461159        12.5488 
 251   0.0000       0.462866        12.5952 
 252   0.0000       0.466274        12.6880 
 253   0.0000       0.468553        12.7500 
 254   0.0000       0.471433        12.8284 
 255   0.0000       0.475968        12.9517 
 256   0.0000       0.476605        12.9691 
 257   0.0000       0.478695        13.0260 
 258   0.0000       0.479978        13.0609 
 259   0.0000       0.486883        13.2488 
 260   0.0000       0.489228        13.3126 
 261   0.0000       0.490812        13.3557 
 262   0.0000       0.491306        13.3691 
 263   0.0000       0.496429        13.5085 
 264   0.0000       0.496932        13.5222 
 265   0.0000       0.499306        13.5868 
 266   0.0000       0.501289        13.6408 
 267   0.0000       0.504953        13.7405 
 268   0.0000       0.506669        13.7872 
 269   0.0000       0.508800        13.8451 
 270   0.0000       0.511576        13.9207 
 271   0.0000       0.517693        14.0871 
 272   0.0000       0.518506        14.1093 
 273   0.0000       0.524368        14.2688 
 274   0.0000       0.527524        14.3546 
 275   0.0000       0.534367        14.5409 
 276   0.0000       0.538895        14.6641 
 277   0.0000       0.539927        14.6922 
 278   0.0000       0.540959        14.7203 
 279   0.0000       0.546007        14.8576 
 280   0.0000       0.549344        14.9484 
 281   0.0000       0.555269        15.1096 
 282   0.0000       0.557488        15.1700 
 283   0.0000       0.559547        15.2261 
 284   0.0000       0.563378        15.3303 
 285   0.0000       0.564676        15.3656 
 286   0.0000       0.568662        15.4741 
 287   0.0000       0.570955        15.5365 
 288   0.0000       0.574032        15.6202 
 289   0.0000       0.584210        15.8972 
 290   0.0000       0.584319        15.9001 
 291   0.0000       0.588686        16.0190 
 292   0.0000       0.590354        16.0644 
 293   0.0000       0.596414        16.2292 
 294   0.0000       0.600755        16.3474 
 295   0.0000       0.605385        16.4734 
 296   0.0000       0.611878        16.6501 
 297   0.0000       0.619063        16.8456 
 298   0.0000       0.620548        16.8860 
 299   0.0000       0.626652        17.0521 
 300   0.0000       0.627000        17.0615 
 301   0.0000       0.632640        17.2150 
 302   0.0000       0.635534        17.2938 
 303   0.0000       0.637746        17.3539 
 304   0.0000       0.642354        17.4793 
 305   0.0000       0.643946        17.5227 
 306   0.0000       0.650897        17.7118 
 307   0.0000       0.657290        17.8858 
 308   0.0000       0.659884        17.9564 
 309   0.0000       0.667561        18.1653 
 310   0.0000       0.670960        18.2578 
 311   0.0000       0.674454        18.3528 
 312   0.0000       0.677212        18.4279 
 313   0.0000       0.678424        18.4609 
 314   0.0000       0.682748        18.5785 
 315   0.0000       0.685453        18.6521 
 316   0.0000       0.685635        18.6571 
 317   0.0000       0.687006        18.6944 
 318   0.0000       0.692599        18.8466 
 319   0.0000       0.694380        18.8951 
 320   0.0000       0.696997        18.9663 
 321   0.0000       0.703218        19.1355 
 322   0.0000       0.703742        19.1498 
 323   0.0000       0.706484        19.2244 
 324   0.0000       0.715368        19.4662 
 325   0.0000       0.720594        19.6084 
 326   0.0000       0.723930        19.6991 
 327   0.0000       0.726523        19.7697 
 328   0.0000       0.728843        19.8328 
 329   0.0000       0.734643        19.9906 
 330   0.0000       0.736799        20.0493 
 331   0.0000       0.741858        20.1870 
 332   0.0000       0.744268        20.2526 
 333   0.0000       0.745570        20.2880 
 334   0.0000       0.747069        20.3288 
 335   0.0000       0.749333        20.3904 
 336   0.0000       0.751309        20.4442 
 337   0.0000       0.759908        20.6781 
 338   0.0000       0.764463        20.8021 
 339   0.0000       0.766128        20.8474 
 340   0.0000       0.768047        20.8996 
 341   0.0000       0.771578        20.9957 
 342   0.0000       0.775416        21.1001 
 343   0.0000       0.776414        21.1273 
 344   0.0000       0.782548        21.2942 
 345   0.0000       0.787445        21.4275 
 346   0.0000       0.789575        21.4854 
 347   0.0000       0.790476        21.5099 
 348   0.0000       0.794507        21.6196 
 349   0.0000       0.799855        21.7652 
 350   0.0000       0.804904        21.9025 
 351   0.0000       0.806955        21.9583 
 352   0.0000       0.809057        22.0156 
 353   0.0000       0.812345        22.1050 
 354   0.0000       0.821409        22.3517 
 355   0.0000       0.823530        22.4094 
 356   0.0000       0.825986        22.4762 
 357   0.0000       0.827938        22.5293 
 358   0.0000       0.833252        22.6739 
 359   0.0000       0.837909        22.8007 
 360   0.0000       0.839962        22.8565 
 361   0.0000       0.846296        23.0289 
 362   0.0000       0.851250        23.1637 
 363   0.0000       0.853721        23.2309 
 364   0.0000       0.855872        23.2895 
 365   0.0000       0.858790        23.3689 
 366   0.0000       0.859326        23.3834 
 367   0.0000       0.862305        23.4645 
 368   0.0000       0.870029        23.6747 
 369   0.0000       0.872240        23.7349 
 370   0.0000       0.878913        23.9164 
 371   0.0000       0.888302        24.1719 
 372   0.0000       0.890461        24.2307 
 373   0.0000       0.894837        24.3498 
 374   0.0000       0.902501        24.5583 
 375   0.0000       0.904919        24.6241 
 376   0.0000       0.910074        24.7644 
 377   0.0000       0.916889        24.9498 
 378   0.0000       0.921872        25.0854 
 379   0.0000       0.925917        25.1955 
 380   0.0000       0.928242        25.2588 
 381   0.0000       0.931726        25.3536 
 382   0.0000       0.933624        25.4052 
 383   0.0000       0.938654        25.5421 
 384   0.0000       0.944784        25.7089 
 385   0.0000       0.946429        25.7536 
 386   0.0000       0.951652        25.8958 
 387   0.0000       0.956484        26.0272 
 388   0.0000       0.960045        26.1242 
 389   0.0000       0.964812        26.2539 
 390   0.0000       0.970426        26.4066 
 391   0.0000       0.972434        26.4613 
 392   0.0000       0.974457        26.5163 
 393   0.0000       0.986534        26.8450 
 394   0.0000       0.991712        26.9859 
 395   0.0000       0.995699        27.0944 
 396   0.0000       0.997904        27.1543 
 397   0.0000       1.000744        27.2316 
 398   0.0000       1.006884        27.3987 
 399   0.0000       1.013508        27.5789 
 400   0.0000       1.021728        27.8026 
 401   0.0000       1.026231        27.9252 
 402   0.0000       1.028027        27.9740 
 403   0.0000       1.031940        28.0805 
 404   0.0000       1.034193        28.1418 
 405   0.0000       1.042568        28.3697 
 406   0.0000       1.053687        28.6723 
 407   0.0000       1.058106        28.7925 
 408   0.0000       1.060471        28.8569 
 409   0.0000       1.066139        29.0111 
 410   0.0000       1.074909        29.2498 
 411   0.0000       1.076722        29.2991 
 412   0.0000       1.081689        29.4342 
 413   0.0000       1.087742        29.5990 
 414   0.0000       1.096631        29.8409 
 415   0.0000       1.099164        29.9098 
 416   0.0000       1.104920        30.0664 
 417   0.0000       1.108582        30.1660 
 418   0.0000       1.110789        30.2261 
 419   0.0000       1.119784        30.4709 
 420   0.0000       1.122954        30.5571 
 421   0.0000       1.133386        30.8410 
 422   0.0000       1.135716        30.9044 
 423   0.0000       1.140360        31.0308 
 424   0.0000       1.140952        31.0469 
 425   0.0000       1.141989        31.0751 
 426   0.0000       1.145706        31.1762 
 427   0.0000       1.150340        31.3024 
 428   0.0000       1.161383        31.6028 
 429   0.0000       1.169881        31.8341 
 430   0.0000       1.175180        31.9783 
 431   0.0000       1.181954        32.1626 
 432   0.0000       1.183575        32.2067 
 433   0.0000       1.190440        32.3935 
 434   0.0000       1.195997        32.5447 
 435   0.0000       1.209228        32.9048 
 436   0.0000       1.214172        33.0393 
 437   0.0000       1.218418        33.1548 
 438   0.0000       1.224179        33.3116 
 439   0.0000       1.226157        33.3654 
 440   0.0000       1.232692        33.5433 
 441   0.0000       1.240263        33.7493 
 442   0.0000       1.245115        33.8813 
 443   0.0000       1.252327        34.0775 
 444   0.0000       1.263840        34.3908 
 445   0.0000       1.265408        34.4335 
 446   0.0000       1.270179        34.5633 
 447   0.0000       1.274009        34.6675 
 448   0.0000       1.283845        34.9352 
 449   0.0000       1.288394        35.0590 
 450   0.0000       1.291968        35.1562 
 451   0.0000       1.304700        35.5027 
 452   0.0000       1.310708        35.6662 
 453   0.0000       1.314156        35.7600 
 454   0.0000       1.319813        35.9139 
 455   0.0000       1.323011        36.0009 
 456   0.0000       1.325076        36.0571 
 457   0.0000       1.332305        36.2539 
 458   0.0000       1.335215        36.3331 
 459   0.0000       1.342155        36.5219 
 460   0.0000       1.351442        36.7746 
 461   0.0000       1.353968        36.8433 
 462   0.0000       1.361102        37.0375 
 463   0.0000       1.363100        37.0918 
 464   0.0000       1.367243        37.2046 
 465   0.0000       1.373995        37.3883 
 466   0.0000       1.381998        37.6061 
 467   0.0000       1.390897        37.8482 
 468   0.0000       1.391444        37.8631 
 469   0.0000       1.403190        38.1827 
 470   0.0000       1.407562        38.3017 
 471   0.0000       1.409842        38.3637 
 472   0.0000       1.411584        38.4111 
 473   0.0000       1.422557        38.7098 
 474   0.0000       1.425546        38.7911 
 475   0.0000       1.428395        38.8686 
 476   0.0000       1.430883        38.9363 
 477   0.0000       1.435021        39.0489 
 478   0.0000       1.442386        39.2493 
 479   0.0000       1.444080        39.2954 
 480   0.0000       1.451808        39.5057 
 481   0.0000       1.460985        39.7554 
 482   0.0000       1.461900        39.7803 
 483   0.0000       1.478500        40.2320 
 484   0.0000       1.480327        40.2817 
 485   0.0000       1.483197        40.3598 
 486   0.0000       1.488321        40.4993 
 487   0.0000       1.489077        40.5198 
 488   0.0000       1.497743        40.7557 
 489   0.0000       1.499329        40.7988 
 490   0.0000       1.504577        40.9416 
 491   0.0000       1.507791        41.0291 
 492   0.0000       1.520278        41.3689 
 493   0.0000       1.521509        41.4024 
 494   0.0000       1.524899        41.4946 
 495   0.0000       1.534795        41.7639 
 496   0.0000       1.535690        41.7882 
 497   0.0000       1.541571        41.9483 
 498   0.0000       1.543662        42.0052 
 499   0.0000       1.545729        42.0614 
 500   0.0000       1.557727        42.3879 
 501   0.0000       1.563385        42.5419 
 502   0.0000       1.569402        42.7056 
 503   0.0000       1.569785        42.7160 
 504   0.0000       1.570008        42.7221 
 505   0.0000       1.578609        42.9561 
 506   0.0000       1.580647        43.0116 
 507   0.0000       1.581671        43.0395 
 508   0.0000       1.586568        43.1727 
 509   0.0000       1.596426        43.4410 
 510   0.0000       1.601238        43.5719 
 511   0.0000       1.604634        43.6643 
 512   0.0000       1.607985        43.7555 
 513   0.0000       1.608946        43.7817 
 514   0.0000       1.611662        43.8556 
 515   0.0000       1.612243        43.8714 
 516   0.0000       1.613542        43.9067 
 517   0.0000       1.615060        43.9480 
 518   0.0000       1.615763        43.9671 
 519   0.0000       1.617374        44.0110 
 520   0.0000       1.626987        44.2726 
 521   0.0000       1.631341        44.3910 
 522   0.0000       1.633993        44.4632 
 523   0.0000       1.640159        44.6310 
 524   0.0000       1.643575        44.7240 
 525   0.0000       1.647451        44.8294 
 526   0.0000       1.652178        44.9580 
 527   0.0000       1.655093        45.0374 
 528   0.0000       1.657462        45.1018 
 529   0.0000       1.657893        45.1136 
 530   0.0000       1.661082        45.2003 
 531   0.0000       1.667225        45.3675 
 532   0.0000       1.673771        45.5456 
 533   0.0000       1.680782        45.7364 
 534   0.0000       1.684872        45.8477 
 535   0.0000       1.686961        45.9045 
 536   0.0000       1.690054        45.9887 
 537   0.0000       1.692059        46.0433 
 538   0.0000       1.696250        46.1573 
 539   0.0000       1.697423        46.1892 
 540   0.0000       1.704201        46.3737 
 541   0.0000       1.705607        46.4119 
 542   0.0000       1.707828        46.4724 
 543   0.0000       1.713964        46.6393 
 544   0.0000       1.718494        46.7626 
 545   0.0000       1.724171        46.9171 
 546   0.0000       1.727381        47.0044 
 547   0.0000       1.731221        47.1089 
 548   0.0000       1.732549        47.1451 
 549   0.0000       1.738465        47.3060 
 550   0.0000       1.744063        47.4584 
 551   0.0000       1.745710        47.5032 
 552   0.0000       1.750375        47.6301 
 553   0.0000       1.751970        47.6735 
 554   0.0000       1.760151        47.8961 
 555   0.0000       1.763661        47.9917 
 556   0.0000       1.772351        48.2281 
 557   0.0000       1.778123        48.3852 
 558   0.0000       1.780169        48.4409 
 559   0.0000       1.786477        48.6125 
 560   0.0000       1.794641        48.8347 
 561   0.0000       1.796168        48.8762 
 562   0.0000       1.800323        48.9893 
 563   0.0000       1.802626        49.0520 
 564   0.0000       1.807131        49.1745 
 565   0.0000       1.812704        49.3262 
 566   0.0000       1.820219        49.5307 
 567   0.0000       1.821815        49.5741 
 568   0.0000       1.834534        49.9202 
 569   0.0000       1.840921        50.0940 
 570   0.0000       1.843323        50.1594 
 571   0.0000       1.849505        50.3276 
 572   0.0000       1.853911        50.4475 
 573   0.0000       1.858431        50.5705 
 574   0.0000       1.863503        50.7085 
 575   0.0000       1.868450        50.8431 
 576   0.0000       1.875755        51.0419 
 577   0.0000       1.878649        51.1206 
 578   0.0000       1.883726        51.2588 
 579   0.0000       1.887105        51.3507 
 580   0.0000       1.888927        51.4003 
 581   0.0000       1.893683        51.5297 
 582   0.0000       1.899422        51.6859 
 583   0.0000       1.908206        51.9249 
 584   0.0000       1.909687        51.9652 
 585   0.0000       1.913163        52.0598 
 586   0.0000       1.917193        52.1695 
 587   0.0000       1.921399        52.2839 
 588   0.0000       1.929223        52.4968 
 589   0.0000       1.932240        52.5789 
 590   0.0000       1.936023        52.6819 
 591   0.0000       1.939039        52.7639 
 592   0.0000       1.945560        52.9414 
 593   0.0000       1.949146        53.0390 
 594   0.0000       1.950142        53.0661 
 595   0.0000       1.961475        53.3745 
 596   0.0000       1.963844        53.4389 
 597   0.0000       1.969172        53.5839 
 598   0.0000       1.976436        53.7816 
 599   0.0000       1.977971        53.8233 
 600   0.0000       1.983069        53.9620 
 601   0.0000       1.993876        54.2561 
 602   0.0000       2.001277        54.4575 
 603   0.0000       2.012560        54.7646 
 604   0.0000       2.016106        54.8610 
 605   0.0000       2.019566        54.9552 
 606   0.0000       2.024134        55.0795 
 607   0.0000       2.030552        55.2541 
 608   0.0000       2.032768        55.3144 
 609   0.0000       2.036340        55.4116 
 610   0.0000       2.039517        55.4981 
 611   0.0000       2.048995        55.7560 
 612   0.0000       2.050869        55.8070 
 613   0.0000       2.058698        56.0200 
 614   0.0000       2.067861        56.2694 
 615   0.0000       2.071239        56.3613 
 616   0.0000       2.081714        56.6463 
 617   0.0000       2.086310        56.7714 
 618   0.0000       2.096781        57.0563 
 619   0.0000       2.103177        57.2303 
 620   0.0000       2.105753        57.3004 
 621   0.0000       2.108354        57.3712 
 622   0.0000       2.111517        57.4573 
 623   0.0000       2.113259        57.5047 
 624   0.0000       2.121073        57.7173 
 625   0.0000       2.129055        57.9345 
 626   0.0000       2.133158        58.0462 
 627   0.0000       2.139353        58.2148 
 628   0.0000       2.145200        58.3739 
 629   0.0000       2.147032        58.4237 
 630   0.0000       2.152806        58.5808 
 631   0.0000       2.162229        58.8372 
 632   0.0000       2.174853        59.1808 
 633   0.0000       2.178789        59.2879 
 634   0.0000       2.181789        59.3695 
 635   0.0000       2.186300        59.4922 
 636   0.0000       2.189738        59.5858 
 637   0.0000       2.194382        59.7122 
 638   0.0000       2.199497        59.8514 
 639   0.0000       2.205539        60.0158 
 640   0.0000       2.207538        60.0702 
 641   0.0000       2.211450        60.1766 
 642   0.0000       2.216525        60.3147 
 643   0.0000       2.223140        60.4947 
 644   0.0000       2.228379        60.6373 
 645   0.0000       2.234289        60.7981 
 646   0.0000       2.239913        60.9511 
 647   0.0000       2.244088        61.0647 
 648   0.0000       2.251599        61.2691 
 649   0.0000       2.255806        61.3836 
 650   0.0000       2.264892        61.6309 
 651   0.0000       2.274205        61.8843 
 652   0.0000       2.275617        61.9227 
 653   0.0000       2.276864        61.9566 
 654   0.0000       2.292353        62.3781 
 655   0.0000       2.293050        62.3971 
 656   0.0000       2.298063        62.5335 
 657   0.0000       2.305321        62.7310 
 658   0.0000       2.309776        62.8522 
 659   0.0000       2.312472        62.9256 
 660   0.0000       2.314967        62.9934 
 661   0.0000       2.327216        63.3268 
 662   0.0000       2.328902        63.3727 
 663   0.0000       2.336013        63.5662 
 664   0.0000       2.340127        63.6781 
 665   0.0000       2.343790        63.7778 
 666   0.0000       2.345775        63.8318 
 667   0.0000       2.351308        63.9823 
 668   0.0000       2.358693        64.1833 
 669   0.0000       2.363240        64.3070 
 670   0.0000       2.372365        64.5553 
 671   0.0000       2.379429        64.7476 
 672   0.0000       2.386725        64.9461 
 673   0.0000       2.394691        65.1629 
 674   0.0000       2.405606        65.4599 
 675   0.0000       2.422040        65.9071 
 676   0.0000       2.425298        65.9957 
 677   0.0000       2.430904        66.1483 
 678   0.0000       2.434311        66.2410 
 679   0.0000       2.447066        66.5881 
 680   0.0000       2.457609        66.8749 
 681   0.0000       2.469097        67.1875 
 682   0.0000       2.492903        67.8353 
 683   0.0000       2.499320        68.0099 
 684   0.0000       2.510167        68.3051 
 685   0.0000       2.515911        68.4614 
 686   0.0000       2.523484        68.6675 
 687   0.0000       2.526724        68.7557 
 688   0.0000       2.535229        68.9871 
 689   0.0000       2.536869        69.0317 
 690   0.0000       2.541377        69.1544 
 691   0.0000       2.553425        69.4822 
[...]
 182   8.889     139.5   0.027971   0.024255  12.615802  11.359853     0.03 (  61->  83)    0.02 (  75->  86)    0.02 (  70->  91)
 183   8.893     139.4   0.009005   0.008377   0.146463   1.051454     0.05 (  68->  85)    0.05 (  69->  86)    0.03 (  79->  91)
 184   8.906     139.2   0.022818   0.018948   9.437536  10.596071     0.05 (  70->  92)    0.04 (  61->  81)    0.03 (  67->  83)
 185   8.908     139.2   0.015170   0.012940  -5.949593  -5.663635     0.19 (  67->  83)    0.08 (  61->  83)    0.04 (  61->  81)
 186   8.916     139.1   0.063648   0.057570  40.427875  37.616125     0.03 (  77->  87)    0.03 (  70->  91)    0.03 (  75->  95)
 187   8.934     138.8   0.009516   0.007720   1.134966   0.893771     0.05 (  72-> 102)    0.05 (  73->  83)    0.05 (  72->  98)
 188   8.936     138.7   0.012115   0.010386   4.578236   3.820352     0.09 (  72-> 102)    0.06 (  72-> 105)    0.04 (  71-> 102)
 189   8.966     138.3   0.005005   0.005097   9.797264   9.761560     0.15 (  78->  90)    0.08 (  78->  88)    0.06 (  78->  87)
 190   8.972     138.2   0.002803   0.003083   1.509077   1.605977     0.07 (  79->  90)    0.06 (  78->  88)    0.04 (  78->  90)
 191   8.985     138.0   0.031554   0.028574   8.994213   8.669483     0.04 (  71->  97)    0.04 (  73->  83)    0.04 (  71->  94)
 192   9.002     137.7   0.003710   0.003220  11.366187  11.277494     0.20 (  76-> 107)    0.12 (  76-> 108)    0.06 (  76-> 111)
 193   9.013     137.6   0.031698   0.029638  -12.567249  -13.333917     0.04 (  70->  91)    0.04 (  79->  91)    0.03 (  79->  90)
 194   9.018     137.5   0.012825   0.011601   1.171598   0.853722     0.12 (  77-> 112)    0.06 (  77-> 111)    0.04 (  77-> 109)
 195   9.025     137.4   0.006520   0.005225   6.466681   6.271685     0.04 (  60->  84)    0.02 (  57->  83)    0.02 (  67->  86)
 196   9.047     137.0   0.006908   0.007472  -14.306707  -14.905178     0.05 (  60->  84)    0.03 (  67->  84)    0.03 (  53->  80)
 197   9.058     136.9   0.000947   0.000565   0.967700   1.107545     0.05 (  49->  80)    0.03 (  62->  84)    0.03 (  43->  80)
 198   9.065     136.8   0.009566   0.007930  -10.052228  -9.149119     0.10 (  78->  89)    0.03 (  77-> 115)    0.02 (  77-> 116)
 199   9.085     136.5   0.006227   0.005567  -18.004744  -16.939603     0.20 (  57->  83)    0.08 (  72->  87)    0.06 (  72->  88)
 200   9.087     136.4   0.032612   0.027684  -16.753746  -15.330696     0.13 (  78->  89)    0.04 (  72->  97)    0.04 (  79->  91)
 201   9.098     136.3   0.006538   0.005110   3.440164   3.297772     0.08 (  79->  91)    0.06 (  78->  89)    0.02 (  78->  91)
 202   9.103     136.2   0.051982   0.043377  48.858232  44.094949     0.09 (  78->  89)    0.04 (  72->  97)    0.03 (  72->  98)
 203   9.124     135.9   0.047847   0.045648  -56.803083  -56.173433     0.08 (  71->  83)    0.02 (  74->  83)    0.02 (  73->  83)
 204   9.138     135.7   0.006565   0.005797  -6.426643  -6.350753     0.05 (  77-> 112)    0.04 (  78-> 116)    0.04 (  70->  93)
 205   9.143     135.6   0.020713   0.017638  12.138799  12.347363     0.14 (  76-> 111)    0.06 (  76-> 112)    0.04 (  66->  89)
 206   9.151     135.5   0.011067   0.010211  -1.469871  -0.014076     0.07 (  56->  84)    0.05 (  60->  80)    0.03 (  60->  91)
 207   9.168     135.2   0.007107   0.005664   0.133942  -0.171306     0.11 (  78->  89)    0.08 (  76-> 111)    0.04 (  77->  87)
 208   9.175     135.1   0.002658   0.002871  -11.913547  -12.983656     0.08 (  77->  88)    0.07 (  77->  90)    0.03 (  77->  87)
 209   9.185     135.0   0.004724   0.004261  28.536897  26.393569     0.09 (  54->  83)    0.06 (  50->  81)    0.04 (  54->  80)
 210   9.201     134.7   0.002546   0.002572  -2.935015  -3.496547     0.09 (  77->  90)    0.09 (  77->  88)    0.05 (  77->  87)
 211   9.205     134.7   0.017656   0.015863  -2.462436  -2.818890     0.09 (  56->  84)    0.03 (  60->  88)    0.02 (  77->  88)
 212   9.231     134.3   0.050830   0.040973  -1.098331  -1.383339     0.18 (  66->  87)    0.11 (  66->  88)    0.09 (  52->  83)
 213   9.247     134.1   0.007403   0.005251  -5.664563  -3.864093     0.06 (  75-> 105)    0.03 (  74->  98)    0.03 (  75-> 102)
 214   9.259     133.9   0.005699   0.004279  -8.983266  -7.337580     0.12 (  60->  80)    0.10 (  60->  88)    0.06 (  60->  82)
 215   9.269     133.8   0.001448   0.001483  -3.372137  -4.739221     0.23 (  71->  83)    0.04 (  71->  82)    0.03 (  60->  80)
 216   9.278     133.6   0.002829   0.002653   6.028392   5.690134     0.08 (  76-> 111)    0.03 (  77-> 116)    0.03 (  66->  89)
 217   9.282     133.6   0.007117   0.005446   2.898157   2.511794     0.10 (  64->  85)    0.05 (  67->  86)    0.04 (  71->  83)
 218   9.292     133.4   0.026651   0.021910  83.593028  73.745497     0.03 (  74->  84)    0.03 (  79->  95)    0.02 (  46->  80)
 219   9.300     133.3   0.005072   0.004328  28.382702  26.160022     0.06 (  63->  81)    0.03 (  63->  84)    0.02 (  70->  86)
 220   9.311     133.2   0.005702   0.004425  -6.998377  -6.937324     0.06 (  77->  89)    0.04 (  78->  89)    0.04 (  76->  88)
 221   9.318     133.1   0.006323   0.005819  -9.354680  -9.032861     0.09 (  76-> 111)    0.07 (  76->  97)    0.04 (  76->  88)
 222   9.327     132.9   0.016923   0.013839  -71.099946  -60.295181     0.05 (  77-> 116)    0.03 (  78->  94)    0.02 (  77-> 117)
 223   9.331     132.9   0.001568   0.001144  -4.461763  -3.562477     0.08 (  77->  89)    0.02 (  69->  90)    0.02 (  78->  95)
 224   9.341     132.7   0.000118   0.000111   0.177834   0.662427     0.05 (  63->  80)    0.03 (  63->  84)    0.03 (  62->  81)
 225   9.355     132.5   0.126488   0.104478  -44.962407  -46.199657     0.16 (  59->  89)    0.05 (  79-> 118)    0.04 (  64->  89)
 226   9.360     132.5   0.018440   0.015427  -34.205848  -31.398218     0.08 (  77->  89)    0.04 (  66->  89)    0.04 (  79-> 100)
 227   9.372     132.3   0.064066   0.053666  29.982503  32.224808     0.05 (  59->  89)    0.05 (  68->  91)    0.03 (  68->  95)
 228   9.377     132.2   0.007099   0.005553  -11.954166  -10.074370     0.29 (  77->  89)    0.02 (  74-> 102)    0.02 (  77-> 116)
 229   9.398     131.9   0.026843   0.024777  30.834683  27.638294     0.05 (  64->  85)    0.03 (  72->  84)    0.03 (  53->  84)
 230   9.405     131.8   0.011675   0.010283  -1.392381  -0.879881     0.03 (  77->  89)    0.03 (  74->  84)    0.03 (  75->  97)
 231   9.413     131.7   0.013329   0.011278  -6.495790  -6.553048     0.05 (  77->  89)    0.05 (  74->  84)    0.02 (  73->  84)
 232   9.423     131.6   0.010447   0.008892  -28.211758  -26.357804     0.15 (  54->  83)    0.06 (  67->  90)    0.03 (  59->  81)
 233   9.430     131.5   0.011446   0.010147   8.786594   8.922383     0.03 (  77->  90)    0.03 (  54->  83)    0.03 (  77->  89)
 234   9.434     131.4   0.031458   0.028211  -9.076604  -9.217954     0.04 (  71->  91)    0.03 (  77->  90)    0.03 (  71->  88)
 235   9.454     131.2   0.015936   0.014545  -4.009147  -2.447755     0.02 (  69->  95)    0.02 (  79->  95)    0.02 (  68->  91)
 236   9.456     131.1   0.000552   0.000423   2.785444   1.885434     0.03 (  71->  91)    0.02 (  77->  89)    0.02 (  55->  84)
 237   9.467     131.0   0.002012   0.002165  -5.008010  -5.755556     0.05 (  54->  83)    0.04 (  41->  80)    0.04 (  50->  81)
 238   9.474     130.9   0.027033   0.023543  -1.552610  -2.733186     0.05 (  77-> 116)    0.05 (  74->  84)    0.04 (  73->  84)
 239   9.475     130.9   0.021168   0.019796   0.650241   1.005553     0.09 (  77-> 116)    0.02 (  74->  84)    0.02 (  77->  98)
 240   9.486     130.7   0.004670   0.004722  -3.566279  -2.500239     0.09 (  49->  81)    0.07 (  41->  80)    0.04 (  51->  83)
 241   9.503     130.5   0.003716   0.003308  14.999923  13.295739     0.06 (  74-> 100)    0.04 (  73-> 104)    0.03 (  79-> 104)
 242   9.503     130.5   0.000550   0.000606   7.549741   7.713830     0.09 (  76->  94)    0.07 (  76->  87)    0.04 (  76->  95)
 243   9.509     130.4   0.041629   0.041340  -2.412942  -2.982772     0.03 (  68->  95)    0.02 (  68->  94)    0.02 (  74-> 104)
 244   9.513     130.3   0.093035   0.088814  -28.988818  -28.372065     0.05 (  64->  86)    0.04 (  72->  87)    0.03 (  67->  85)
 245   9.527     130.1   0.006897   0.006743   0.450855  -0.271175     0.03 (  72->  84)    0.03 (  70->  91)    0.02 (  72->  88)
 246   9.531     130.1   0.006682   0.006303  -8.825666  -9.345457     0.04 (  74-> 103)    0.03 (  68->  99)    0.02 (  79->  92)
 247   9.535     130.0   0.042218   0.035180  -22.993645  -18.745837     0.13 (  66->  90)    0.10 (  79-> 118)    0.04 (  46->  80)
 248   9.540     130.0   0.020506   0.019582  10.898445  10.936116     0.05 (  74-> 103)    0.04 (  75-> 103)    0.03 (  74-> 104)
 249   9.548     129.9   0.003651   0.003423  19.488605  18.838016     0.07 (  72->  84)    0.03 (  67->  95)    0.02 (  75->  99)
 250   9.553     129.8   0.003298   0.003235  14.135257  14.100965     0.06 (  72->  84)    0.03 (  67->  90)    0.03 (  39->  80)
 251   9.568     129.6   0.025032   0.021728  -39.704019  -37.190177     0.04 (  73->  94)    0.04 (  74->  94)    0.03 (  74-> 103)
 252   9.576     129.5   0.022267   0.019424   5.793349   4.920062     0.04 (  72->  84)    0.02 (  79->  93)    0.02 (  69->  87)
 253   9.595     129.2   0.009577   0.007578  -14.071610  -12.659600     0.03 (  73->  94)    0.02 (  75->  89)    0.02 (  79->  92)
 254   9.617     128.9   0.006801   0.005587  36.141875  30.909564     0.03 (  75->  87)    0.03 (  74->  86)    0.03 (  75->  88)
 255   9.623     128.8   0.003100   0.003000  -2.707830  -2.507224     0.06 (  72->  96)    0.05 (  79->  93)    0.03 (  72->  95)
 256   9.633     128.7   0.003854   0.002935  -1.016863  -1.504334     0.07 (  72->  96)    0.05 (  79->  93)    0.05 (  51->  83)
 257   9.635     128.7   0.032690   0.027613  -24.826427  -25.031810     0.02 (  74->  94)    0.02 (  75->  89)    0.02 (  68->  94)
 258   9.643     128.6   0.013622   0.011543  -18.619825  -17.269968     0.06 (  64->  82)    0.05 (  72->  84)    0.03 (  72->  96)
 259   9.644     128.6   0.001986   0.001274  11.659251   9.148406     0.04 (  68->  97)    0.03 (  79->  93)    0.02 (  79->  92)
 260   9.656     128.4   0.009107   0.007061  -8.455019  -7.628274     0.19 (  79->  93)    0.11 (  79->  92)    0.03 (  78->  93)
 261   9.662     128.3   0.022898   0.019350  31.318222  29.338642     0.13 (  76-> 114)    0.08 (  76-> 113)    0.04 (  76-> 115)
 262   9.670     128.2   0.004819   0.004251  -5.153017  -3.902606     0.17 (  76-> 113)    0.11 (  76-> 114)    0.08 (  76-> 115)
 263   9.676     128.1   0.005934   0.004516  -32.357834  -28.926043     0.05 (  73-> 103)    0.04 (  74-> 107)    0.03 (  74-> 111)
 264   9.684     128.0   0.001751   0.001557  -7.349263  -7.547838     0.16 (  59->  81)    0.10 (  59->  80)    0.08 (  67->  90)
 265   9.689     128.0   0.038863   0.030880  12.400327  16.969573     0.03 (  77->  94)    0.03 (  79-> 118)    0.02 (  77-> 115)
 266   9.699     127.8   0.017382   0.014258  22.992795  21.519160     0.07 (  79-> 118)    0.04 (  74->  86)    0.02 (  73->  85)
 267   9.709     127.7   0.034535   0.028933   3.322435   1.428421     0.05 (  73->  96)    0.03 (  74->  96)    0.03 (  79-> 118)
 268   9.717     127.6   0.011498   0.010265  19.060430  16.853482     0.06 (  78-> 119)    0.03 (  76->  88)    0.03 (  73->  90)
 269   9.736     127.3   0.003697   0.003423  -2.426806  -2.595939     0.08 (  78-> 119)    0.05 (  49->  80)    0.04 (  57->  81)
 270   9.740     127.3   0.055646   0.046843  66.664660  60.151348     0.05 (  73->  96)    0.05 (  79-> 118)    0.03 (  78->  96)
 271   9.744     127.2   0.012967   0.010183  13.415109  11.643716     0.07 (  76->  88)    0.05 (  76->  95)    0.04 (  69-> 102)
 272   9.748     127.2   0.012561   0.011029  -8.880093  -8.069808     0.09 (  76-> 114)    0.08 (  76->  88)    0.05 (  76->  95)
 273   9.760     127.0   0.005572   0.004832  -10.102165  -9.276688     0.03 (  69-> 102)    0.02 (  69->  99)    0.02 (  69->  94)
 274   9.773     126.9   0.008681   0.007200  -23.795826  -21.964331     0.08 (  56->  80)    0.06 (  60->  84)    0.03 (  56->  82)
 275   9.784     126.7   0.005890   0.004711  -37.289934  -33.535849     0.03 (  72->  89)    0.03 (  68->  99)    0.02 (  78-> 117)
 276   9.786     126.7   0.018194   0.013293  -1.841168  -1.639851     0.26 (  72->  89)    0.07 (  72->  94)    0.03 (  77-> 119)
 277   9.792     126.6   0.010433   0.008442  -11.151715  -9.386645     0.15 (  72->  89)    0.04 (  77-> 119)    0.03 (  72->  94)
 278   9.803     126.5   0.025954   0.020621  -7.212600  -6.282816     0.04 (  76-> 114)    0.03 (  71->  92)    0.03 (  78-> 120)
 279   9.809     126.4   0.017332   0.015131  -23.146559  -22.339758     0.08 (  76-> 114)    0.05 (  76-> 113)    0.03 (  76->  88)
 280   9.814     126.3   0.001051   0.000806   2.129744   2.316203     0.04 (  65->  90)    0.04 (  42->  80)    0.03 (  40->  80)
 281   9.823     126.2   0.013373   0.010619  -3.267261  -3.015050     0.04 (  76-> 114)    0.03 (  76-> 113)    0.02 (  44->  81)
 282   9.830     126.1   0.003700   0.002638  -2.662955  -2.700508     0.07 (  44->  80)    0.06 (  54->  87)    0.06 (  44->  81)
 283   9.839     126.0   0.015221   0.011713  48.274221  42.198826     0.05 (  77-> 119)    0.02 (  76-> 115)    0.02 (  78-> 120)
 284   9.851     125.9   0.008599   0.006776  -13.879181  -11.376870     0.08 (  78-> 116)    0.06 (  78-> 119)    0.04 (  76-> 115)
 285   9.860     125.7   0.005720   0.004086  -3.295272  -2.263157     0.37 (  68->  83)    0.06 (  68->  82)    0.05 (  70->  83)
 286   9.866     125.7   0.004657   0.003928   4.219115   2.202790     0.05 (  64->  95)    0.04 (  67-> 102)    0.04 (  76-> 115)
 287   9.868     125.6   0.010613   0.009561  -8.366518  -6.848798     0.10 (  76-> 115)    0.05 (  67-> 102)    0.04 (  76-> 109)
 288   9.878     125.5   0.008568   0.008334   6.418440   4.755488     0.05 (  67->  99)    0.04 (  67-> 102)    0.04 (  68->  83)
 289   9.881     125.5   0.005527   0.004530  -7.247215  -6.593361     0.07 (  56->  80)    0.05 (  48->  81)    0.04 (  67->  99)
 290   9.896     125.3   0.000850   0.000651  -7.569519  -6.550552     0.08 (  66->  82)    0.05 (  52->  83)    0.05 (  66->  81)
 291   9.901     125.2   0.003058   0.003819  -3.315087  -2.509128     0.04 (  70->  83)    0.02 (  66->  82)    0.02 (  79->  97)
 292   9.923     125.0   0.001539   0.001464   2.574358   2.821785     0.10 (  75->  89)    0.06 (  69->  89)    0.03 (  78->  94)
 293   9.938     124.8   0.005311   0.004809   4.452254   4.280324     0.05 (  66->  89)    0.04 (  78->  94)    0.02 (  75->  89)
 294   9.939     124.7   0.018402   0.013513  -40.124650  -36.020221     0.04 (  70->  83)    0.03 (  78-> 119)    0.02 (  79->  98)
 295   9.954     124.6   0.019671   0.017771  36.760626  34.264157     0.06 (  77-> 119)    0.02 (  70->  83)    0.02 (  48->  81)
 296   9.970     124.4   0.010439   0.008194  12.769732  12.239258     0.06 (  45->  81)    0.04 (  45->  82)    0.04 (  45->  80)
 297   9.974     124.3   0.004118   0.003742   2.917037   2.490814     0.03 (  45->  81)    0.02 (  72->  96)    0.02 (  59->  90)
 298   9.981     124.2   0.010055   0.007989  14.975794  14.011553     0.03 (  72->  96)    0.03 (  77-> 120)    0.02 (  75-> 106)
 299   9.989     124.1   0.013531   0.012390   1.290595   1.243348     0.03 (  77-> 120)    0.02 (  48->  81)    0.01 (  48->  82)
 300   9.995     124.0   0.000539   0.000565   4.048493   5.894083     0.05 (  75->  89)    0.04 (  65->  85)    0.04 (  66->  85)

sTD-DFT done

Total run time:       61.257 sec

           *** ORCA-CIS/TD-DFT FINISHED WITHOUT ERROR ***


-------------------------------------------------------------------------------
                          DFT DISPERSION CORRECTION                            
                                                                               
                              DFTD3 V3.1  Rev 1                                
                              USING zero damping                               
-------------------------------------------------------------------------------
The omegaB97X-D3 functional is recognized. Fit by Chai et al.
Active option DFTDOPT                   ...         3   

molecular C6(AA) [au] = 47413.331445 


            DFT-D V3
 parameters
 s6 scaling factor         :     1.0000 
 rs6 scaling factor        :     1.2810 
 s8 scaling factor         :     1.0000 
 rs8 scaling factor        :     1.0940 
 Damping factor alpha6     :    14.0000 
 Damping factor alpha8     :    16.0000 
 ad hoc parameters k1-k3   :    16.0000     1.3333    -4.0000 

 Edisp/kcal,au: -14.596489515240  -0.023260984195 
 E6   /kcal   :  -6.714152620 
 E8   /kcal   :  -7.882336896 
 % E8         :  54.001593242 

-------------------------   ----------------
Dispersion correction           -0.023260984
-------------------------   ----------------


-------------------------   --------------------
FINAL SINGLE POINT ENERGY     -2865.215382852905
-------------------------   --------------------


                            ***************************************
                            *     ORCA property calculations      *
                            ***************************************

                                    ---------------------
                                    Active property flags
                                    ---------------------
   (+) Dipole Moment
   (+) Quadrupole Moment


------------------------------------------------------------------------------
                       ORCA ELECTRIC PROPERTIES CALCULATION
------------------------------------------------------------------------------

Dipole Moment Calculation                       ... on
Quadrupole Moment Calculation                   ... on
Polarizability Calculation                      ... off
GBWName                                         ... total_job2.gbw
Electron density file                           ... total_job2.scfp.tmp

-------------
DIPOLE MOMENT
-------------
                                X             Y             Z
Electronic contribution:    -20.31643       1.99292       3.51695
Nuclear contribution   :     21.09558      -2.07604      -3.44235
                        -----------------------------------------
Total Dipole Moment    :      0.77915      -0.08312       0.07460
                        -----------------------------------------
Magnitude (a.u.)       :      0.78711
Magnitude (Debye)      :      2.00068


------------------------
QUADRUPOLE MOMENT (A.U.)
------------------------

                XX           YY           ZZ           XY           XZ           YZ
  NUC     26302.24159   1020.68753   4046.71519  -4346.35222   1436.18710     86.29966
  EL     -26416.42372  -1194.40043  -4202.36598   4336.89266  -1424.77003    -88.18557
  TOT      -114.18213   -173.71291   -155.65079     -9.45956     11.41708     -1.88591

--------------------------------------------------------------------------
[[60921,1],0]: A high-performance Open MPI point-to-point messaging module
was unable to find any relevant network interfaces:

Module: OpenFabrics (openib)
  Host: cx1-108-1-3

Another transport will be used instead, although this may result in
lower performance.
--------------------------------------------------------------------------

Timings for individual modules:

Sum of individual times         ...      242.213 sec (=   4.037 min)
GTO integral calculation        ...        6.705 sec (=   0.112 min)   2.8 %
SCF iterations                  ...      168.359 sec (=   2.806 min)  69.5 %
CIS module                      ...       67.149 sec (=   1.119 min)  27.7 %



                             ****ORCA TERMINATED NORMALLY****
TOTAL RUN TIME: 0 days 0 hours 14 minutes 29 seconds 96 msec
