
                                 *****************
                                 * O   R   C   A *
                                 *****************

           --- An Ab Initio, DFT and Semiempirical electronic structure package ---

                  #######################################################
                  #                        -***-                        #
                  #  Department of molecular theory and spectroscopy    #
                  #              Directorship: Frank Neese              #
                  # Max Planck Institute for Chemical Energy Conversion #
                  #                  D-45470 Muelheim/Ruhr              #
                  #                       Germany                       #
                  #                                                     #
                  #                  All rights reserved                #
                  #                        -***-                        #
                  #######################################################


                         Program Version 4.0.0 -  RELEASE  -


 With contributions from (in alphabetic order):
   Daniel Aravena         : Magnetic Properties
   Michael Atanasov       : Ab Initio Ligand Field Theory
   Ute Becker             : Parallelization
   Martin Brehm           : Molecular dynamics
   Dmytro Bykov           : SCF Hessian
   Vijay G. Chilkuri      : MRCI spin determinant printing
   Dipayan Datta          : RHF DLPNO-CCSD density
   Achintya Kumar Dutta   : EOM-CC, STEOM-CC
   Dmitry Ganyushin       : Spin-Orbit,Spin-Spin,Magnetic field MRCI
   Yang Guo               : DLPNO-NEVPT2, CIM, IAO-localization
   Andreas Hansen         : Spin unrestricted coupled pair/coupled cluster methods
   Lee Huntington         : MR-EOM, pCC
   Robert Izsak           : Overlap fitted RIJCOSX, COSX-SCS-MP3, EOM
   Christian Kollmar      : KDIIS, OOCD, Brueckner-CCSD(T), CCSD density
   Simone Kossmann        : Meta GGA functionals, TD-DFT gradient, OOMP2, MP2 Hessian
   Martin Krupicka        : AUTO-CI
   Dagmar Lenk            : GEPOL surface
   Dimitrios Liakos       : Extrapolation schemes; parallel MDCI
   Dimitrios Manganas     : ROCIS; embedding schemes
   Dimitrios Pantazis     : SARC Basis sets
   Taras Petrenko         : DFT Hessian,TD-DFT gradient, ASA, ECA, R-Raman, ABS, FL, XAS/XES, NRVS
   Peter Pinski           : DLPNO-MP2
   Christoph Reimann      : Effective Core Potentials
   Marius Retegan         : Local ZFS, SOC
   Christoph Riplinger    : Optimizer, TS searches, QM/MM, DLPNO-CCSD(T), (RO)-DLPNO pert. Triples
   Tobias Risthaus        : Range-separated hybrids, TD-DFT gradient, RPA, STAB
   Michael Roemelt        : Restricted open shell CIS
   Masaaki Saitow         : Open-shell DLPNO
   Barbara Sandhoefer     : DKH picture change effects
   Kantharuban Sivalingam : CASSCF convergence, NEVPT2, FIC-MRCI
   Georgi Stoychev        : AutoAux
   Boris Wezisla          : Elementary symmetry handling
   Frank Wennmohs         : Technical directorship


 We gratefully acknowledge several colleagues who have allowed us to
 interface, adapt or use parts of their codes:
   Stefan Grimme, W. Hujo, H. Kruse,             : VdW corrections, initial TS optimization,
                  C. Bannwarth                     DFT functionals, gCP, sTDA/sTD-DF
   Ed Valeev                                     : LibInt (2-el integral package), F12 methods
   Garnet Chan, S. Sharma, J. Yang, R. Olivares  : DMRG
   Ulf Ekstrom                                   : XCFun DFT Library
   Mihaly Kallay                                 : mrcc  (arbitrary order and MRCC methods)
   Jiri Pittner, Ondrej Demel                    : Mk-CCSD
   Frank Weinhold                                : gennbo (NPA and NBO analysis)
   Christopher J. Cramer and Donald G. Truhlar   : smd solvation model


 Your calculation uses the libint2 library for the computation of 2-el integrals
 For citations please refer to: http://libint.valeyev.net

 This ORCA versions uses:
   CBLAS   interface :  Fast vector & matrix operations
   LAPACKE interface :  Fast linear algebra routines
   SCALAPACK package :  Parallel linear algebra routines


Your calculation utilizes the atom-pairwise dispersion correction
with the zero-damping scheme (D30)
Cite in your paper:
S.Grimme, J.Antony, S.Ehrlich and H.Krieg, J.Chem.Phys., 132, (2010), 154104 
   

XCFun DFT library Copyright 2009-2010 Ulf Ekstrom and contributors.
See http://admol.org/xcfun for more information. This is free soft-
ware; see the source code for copying conditions. There is ABSOLUTELY
NO WARRANTY; not even for MERCHANTABILITY or FITNESS FOR A PARTICULAR
PURPOSE. For details see the documentation. Scientific users of this 
library should cite U. Ekstrom, L. Visscher, R. Bast, A. J. Thorvald-
sen and K. Ruud; J.Chem.Theor.Comp. 2010, DOI: 10.1021/ct100117s
XCFun Version 0.99 
Your calculation utilizes the basis: def2-TZVP
   F. Weigend and R. Ahlrichs, Phys. Chem. Chem. Phys. 7, 3297 (2005).

Your calculation utilizes the auxiliary basis: def2/J
   F. Weigend, Phys. Chem. Chem. Phys. 8, 1057 (2006).

================================================================================
                                        WARNINGS
                       Please study these warnings very carefully!
================================================================================

Warning: TCutStore was < 0. Adjusted to Thresh (uncritical)
INFO   : Checking CIS options ...

WARNING: CIS/ROCIS methods need fully converged wavefunctions
  ===> : Setting SCFConvForced true
         You can overwrite this default with %scf ConvForced false 


INFO   : the flag for use of LIBINT has been found!

Your calculation utilizes the atom-pairwise dispersion correction
with the zero-damping scheme (D30)
Cite in your paper:
S.Grimme, J.Antony, S.Ehrlich and H.Krieg, J.Chem.Phys., 132, (2010), 154104 
   

XCFun DFT library Copyright 2009-2010 Ulf Ekstrom and contributors.
See http://admol.org/xcfun for more information. This is free soft-
ware; see the source code for copying conditions. There is ABSOLUTELY
NO WARRANTY; not even for MERCHANTABILITY or FITNESS FOR A PARTICULAR
PURPOSE. For details see the documentation. Scientific users of this 
library should cite U. Ekstrom, L. Visscher, R. Bast, A. J. Thorvald-
sen and K. Ruud; J.Chem.Theor.Comp. 2010, DOI: 10.1021/ct100117s
XCFun Version 0.99 
Your calculation utilizes the basis: def2-TZVP
   F. Weigend and R. Ahlrichs, Phys. Chem. Chem. Phys. 7, 3297 (2005).

Your calculation utilizes the auxiliary basis: def2/J
   F. Weigend, Phys. Chem. Chem. Phys. 8, 1057 (2006).

================================================================================
                                        WARNINGS
                       Please study these warnings very carefully!
================================================================================

INFO   : Checking CIS options ...

INFO   : the flag for use of LIBINT has been found!

================================================================================
                                       INPUT FILE
================================================================================
NAME = total.inp
|  1> # 
|  2> !wB97X-D3 def2-TZVP def2/J RIJCOSX Grid5 FinalGrid6 TightSCF
|  3> %pal 
|  4>  nprocs 24
|  5> end
|  6> %tddft
|  7>   Mode sTDDFT
|  8>   nroots 2
|  9>   Ethresh 10.0
| 10>   maxcore 5000
| 11>   triplets true
| 12> end
| 13> * xyz 0 1 
| 14> C 4.78829552 2.39571790 1.35920444
| 15> C 5.14374682 1.26505827 0.62873112
| 16> C 6.40739814 0.67934727 0.83791807
| 17> C 7.27944137 1.28516651 1.78634169
| 18> C 6.92306204 2.42295941 2.52679141
| 19> C 5.66243236 2.96851177 2.29956102
| 20> C 7.12836680 -0.45526482 0.27680984
| 21> C 8.40851700 -0.45482548 0.90852650
| 22> N 8.47089135 0.58338069 1.81940131
| 23> C 9.41793368 -1.37840969 0.60225896
| 24> C 9.14487608 -2.32420268 -0.38332591
| 25> C 7.90097913 -2.34729676 -1.02566629
| 26> C 6.86898448 -1.44401576 -0.71219327
| 27> H 7.70940007 -3.10204099 -1.78351497
| 28> H 9.27348691 0.81197172 2.39283966
| 29> H 9.90182633 -3.05417291 -0.65616821
| 30> H 4.44104317 0.84165861 -0.08170756
| 31> H 7.60850395 2.86179204 3.24698821
| 32> H 5.35047614 3.84940561 2.85461273
| 33> H 3.81142634 2.84513750 1.20198862
| 34> C -0.29807913 -0.77593508 -0.93067818
| 35> N 0.84013708 -1.23385207 -1.52287693
| 36> C 2.00325287 -0.97248844 -0.88972476
| 37> N 2.07865979 -0.28746117 0.28204526
| 38> C 0.90557922 0.13135615 0.79783060
| 39> N -0.29867483 -0.08027551 0.23905001
| 40> C 3.27477912 -1.43918429 -1.51037527
| 41> N 4.42437695 -1.23120953 -0.82927581
| 42> C 5.57924760 -1.62260646 -1.41886932
| 43> N 5.60108543 -2.23107685 -2.63765452
| 44> C 4.41326580 -2.41291063 -3.24013755
| 45> N 3.22536068 -2.03289069 -2.72916687
| 46> H 4.41079197 -2.90414973 -4.22515290
| 47> H 0.93732195 0.68989213 1.74541317
| 48> C -7.97672891 -0.74299453 -1.36533577
| 49> C -9.31996912 -0.37398887 -1.32013338
| 50> C -9.68560219 0.88298017 -0.83521751
| 51> C -8.70009187 1.77369390 -0.40426991
| 52> C -7.35684382 1.40521599 -0.43989671
| 53> C -6.97868033 0.13456292 -0.90958829
| 54> C -5.54705471 -0.27314786 -0.98932751
| 55> C -4.58265384 0.07733046 0.05828548
| 56> N -3.27458811 -0.12221027 -0.09748937
| 57> C -2.87606034 -0.74559671 -1.25458523
| 58> C -3.83896449 -1.21093810 -2.22338391
| 59> N -5.18325048 -0.93908772 -2.08293051
| 60> C -1.55160103 -1.05788126 -1.60936225
| 61> S -1.53163637 -1.93094831 -3.12358170
| 62> C -3.25053762 -1.88165711 -3.29718356
| 63> C -5.00831345 0.63531748 1.37184299
| 64> C -4.20282795 1.59811823 2.00411412
| 65> C -4.56477201 2.12204620 3.24349401
| 66> C -5.72686428 1.68046016 3.87891497
| 67> C -6.51978114 0.70315219 3.27359217
| 68> C -6.16597159 0.18276750 2.03046037
| 69> H -6.77915254 -0.59218442 1.57733557
| 70> H -7.41529026 0.34280637 3.77331623
| 71> H -6.00862756 2.08840483 4.84620977
| 72> H -3.93833767 2.87361533 3.71746985
| 73> H -3.29570785 1.93415273 1.50858682
| 74> H -6.59543692 2.11129949 -0.11791633
| 75> H -8.97897498 2.75958465 -0.04134954
| 76> H -10.73310099 1.17098379 -0.80087668
| 77> H -10.08347335 -1.06626499 -1.66616103
| 78> H -7.68815481 -1.71961568 -1.74550243
| 79> H 10.37859126 -1.34919049 1.10933055
| 80> H -3.75783288 -2.31817206 -4.14868558
| 81> *
| 82> $new_job
| 83> # 
| 84> !wB97X-D3 def2-TZVP def2/J RIJCOSX Grid5 FinalGrid6 TightSCF
| 85> %pal 
| 86>  nprocs 24
| 87> end
| 88> %elprop
| 89>    dipole     true
| 90>    quadrupole true
| 91> end
| 92> %tddft
| 93>   Mode sTDDFT
| 94>   nroots 2
| 95>   Ethresh 10.0
| 96>   maxcore 5000
| 97> end
| 98> * xyz 0 1 
| 99> C 4.78829552 2.39571790 1.35920444
|100> C 5.14374682 1.26505827 0.62873112
|101> C 6.40739814 0.67934727 0.83791807
|102> C 7.27944137 1.28516651 1.78634169
|103> C 6.92306204 2.42295941 2.52679141
|104> C 5.66243236 2.96851177 2.29956102
|105> C 7.12836680 -0.45526482 0.27680984
|106> C 8.40851700 -0.45482548 0.90852650
|107> N 8.47089135 0.58338069 1.81940131
|108> C 9.41793368 -1.37840969 0.60225896
|109> C 9.14487608 -2.32420268 -0.38332591
|110> C 7.90097913 -2.34729676 -1.02566629
|111> C 6.86898448 -1.44401576 -0.71219327
|112> H 7.70940007 -3.10204099 -1.78351497
|113> H 9.27348691 0.81197172 2.39283966
|114> H 9.90182633 -3.05417291 -0.65616821
|115> H 4.44104317 0.84165861 -0.08170756
|116> H 7.60850395 2.86179204 3.24698821
|117> H 5.35047614 3.84940561 2.85461273
|118> H 3.81142634 2.84513750 1.20198862
|119> C -0.29807913 -0.77593508 -0.93067818
|120> N 0.84013708 -1.23385207 -1.52287693
|121> C 2.00325287 -0.97248844 -0.88972476
|122> N 2.07865979 -0.28746117 0.28204526
|123> C 0.90557922 0.13135615 0.79783060
|124> N -0.29867483 -0.08027551 0.23905001
|125> C 3.27477912 -1.43918429 -1.51037527
|126> N 4.42437695 -1.23120953 -0.82927581
|127> C 5.57924760 -1.62260646 -1.41886932
|128> N 5.60108543 -2.23107685 -2.63765452
|129> C 4.41326580 -2.41291063 -3.24013755
|130> N 3.22536068 -2.03289069 -2.72916687
|131> H 4.41079197 -2.90414973 -4.22515290
|132> H 0.93732195 0.68989213 1.74541317
|133> C -7.97672891 -0.74299453 -1.36533577
|134> C -9.31996912 -0.37398887 -1.32013338
|135> C -9.68560219 0.88298017 -0.83521751
|136> C -8.70009187 1.77369390 -0.40426991
|137> C -7.35684382 1.40521599 -0.43989671
|138> C -6.97868033 0.13456292 -0.90958829
|139> C -5.54705471 -0.27314786 -0.98932751
|140> C -4.58265384 0.07733046 0.05828548
|141> N -3.27458811 -0.12221027 -0.09748937
|142> C -2.87606034 -0.74559671 -1.25458523
|143> C -3.83896449 -1.21093810 -2.22338391
|144> N -5.18325048 -0.93908772 -2.08293051
|145> C -1.55160103 -1.05788126 -1.60936225
|146> S -1.53163637 -1.93094831 -3.12358170
|147> C -3.25053762 -1.88165711 -3.29718356
|148> C -5.00831345 0.63531748 1.37184299
|149> C -4.20282795 1.59811823 2.00411412
|150> C -4.56477201 2.12204620 3.24349401
|151> C -5.72686428 1.68046016 3.87891497
|152> C -6.51978114 0.70315219 3.27359217
|153> C -6.16597159 0.18276750 2.03046037
|154> H -6.77915254 -0.59218442 1.57733557
|155> H -7.41529026 0.34280637 3.77331623
|156> H -6.00862756 2.08840483 4.84620977
|157> H -3.93833767 2.87361533 3.71746985
|158> H -3.29570785 1.93415273 1.50858682
|159> H -6.59543692 2.11129949 -0.11791633
|160> H -8.97897498 2.75958465 -0.04134954
|161> H -10.73310099 1.17098379 -0.80087668
|162> H -10.08347335 -1.06626499 -1.66616103
|163> H -7.68815481 -1.71961568 -1.74550243
|164> H 10.37859126 -1.34919049 1.10933055
|165> H -3.75783288 -2.31817206 -4.14868558
|166> *
|167> 
|168>                          ****END OF INPUT****
================================================================================


                 $$$$$$$$$$$$$$$$$$$$$$$$$$$$$$$$$$$$$$$$$$$$$$ 
                 $ THERE ARE  2 JOBS TO BE PROCESSED THIS RUN $
                 $$$$$$$$$$$$$$$$$$$$$$$$$$$$$$$$$$$$$$$$$$$$$$ 




                 $$$$$$$$$$$$$$$$  JOB NUMBER  1 $$$$$$$$$$$$$$


                       ****************************
                       * Single Point Calculation *
                       ****************************

---------------------------------
CARTESIAN COORDINATES (ANGSTROEM)
---------------------------------
  C      4.788296    2.395718    1.359204
  C      5.143747    1.265058    0.628731
  C      6.407398    0.679347    0.837918
  C      7.279441    1.285167    1.786342
  C      6.923062    2.422959    2.526791
  C      5.662432    2.968512    2.299561
  C      7.128367   -0.455265    0.276810
  C      8.408517   -0.454825    0.908527
  N      8.470891    0.583381    1.819401
  C      9.417934   -1.378410    0.602259
  C      9.144876   -2.324203   -0.383326
  C      7.900979   -2.347297   -1.025666
  C      6.868984   -1.444016   -0.712193
  H      7.709400   -3.102041   -1.783515
  H      9.273487    0.811972    2.392840
  H      9.901826   -3.054173   -0.656168
  H      4.441043    0.841659   -0.081708
  H      7.608504    2.861792    3.246988
  H      5.350476    3.849406    2.854613
  H      3.811426    2.845137    1.201989
  C     -0.298079   -0.775935   -0.930678
  N      0.840137   -1.233852   -1.522877
  C      2.003253   -0.972488   -0.889725
  N      2.078660   -0.287461    0.282045
  C      0.905579    0.131356    0.797831
  N     -0.298675   -0.080276    0.239050
  C      3.274779   -1.439184   -1.510375
  N      4.424377   -1.231210   -0.829276
  C      5.579248   -1.622606   -1.418869
  N      5.601085   -2.231077   -2.637655
  C      4.413266   -2.412911   -3.240138
  N      3.225361   -2.032891   -2.729167
  H      4.410792   -2.904150   -4.225153
  H      0.937322    0.689892    1.745413
  C     -7.976729   -0.742995   -1.365336
  C     -9.319969   -0.373989   -1.320133
  C     -9.685602    0.882980   -0.835218
  C     -8.700092    1.773694   -0.404270
  C     -7.356844    1.405216   -0.439897
  C     -6.978680    0.134563   -0.909588
  C     -5.547055   -0.273148   -0.989328
  C     -4.582654    0.077330    0.058285
  N     -3.274588   -0.122210   -0.097489
  C     -2.876060   -0.745597   -1.254585
  C     -3.838964   -1.210938   -2.223384
  N     -5.183250   -0.939088   -2.082931
  C     -1.551601   -1.057881   -1.609362
  S     -1.531636   -1.930948   -3.123582
  C     -3.250538   -1.881657   -3.297184
  C     -5.008313    0.635317    1.371843
  C     -4.202828    1.598118    2.004114
  C     -4.564772    2.122046    3.243494
  C     -5.726864    1.680460    3.878915
  C     -6.519781    0.703152    3.273592
  C     -6.165972    0.182767    2.030460
  H     -6.779153   -0.592184    1.577336
  H     -7.415290    0.342806    3.773316
  H     -6.008628    2.088405    4.846210
  H     -3.938338    2.873615    3.717470
  H     -3.295708    1.934153    1.508587
  H     -6.595437    2.111299   -0.117916
  H     -8.978975    2.759585   -0.041350
  H    -10.733101    1.170984   -0.800877
  H    -10.083473   -1.066265   -1.666161
  H     -7.688155   -1.719616   -1.745502
  H     10.378591   -1.349190    1.109331
  H     -3.757833   -2.318172   -4.148686

----------------------------
CARTESIAN COORDINATES (A.U.)
----------------------------
  NO LB      ZA    FRAG     MASS         X           Y           Z
   0 C     6.0000    0    12.011    9.048567    4.527251    2.568524
   1 C     6.0000    0    12.011    9.720273    2.390614    1.188130
   2 C     6.0000    0    12.011   12.108228    1.283780    1.583436
   3 C     6.0000    0    12.011   13.756151    2.428613    3.375697
   4 C     6.0000    0    12.011   13.082691    4.578730    4.774944
   5 C     6.0000    0    12.011   10.700446    5.609674    4.345541
   6 C     6.0000    0    12.011   13.470661   -0.860326    0.523095
   7 C     6.0000    0    12.011   15.889794   -0.859496    1.716866
   8 N     7.0000    0    14.007   16.007665    1.102430    3.438170
   9 C     6.0000    0    12.011   17.797315   -2.604817    1.138104
  10 C     6.0000    0    12.011   17.281311   -4.392107   -0.724381
  11 C     6.0000    0    12.011   14.930687   -4.435748   -1.938228
  12 C     6.0000    0    12.011   12.980499   -2.728794   -1.345850
  13 H     1.0000    0     1.008   14.568655   -5.862008   -3.370355
  14 H     1.0000    0     1.008   17.524351    1.534404    4.521812
  15 H     1.0000    0     1.008   18.711740   -5.771550   -1.239978
  16 H     1.0000    0     1.008    8.392355    1.590504   -0.154405
  17 H     1.0000    0     1.008   14.377989    5.408003    6.135918
  18 H     1.0000    0     1.008   10.110935    7.274322    5.394436
  19 H     1.0000    0     1.008    7.202552    5.376531    2.271429
  20 C     6.0000    0    12.011   -0.563288   -1.466305   -1.758727
  21 N     7.0000    0    14.007    1.587629   -2.331643   -2.877820
  22 C     6.0000    0    12.011    3.785599   -1.837737   -1.681336
  23 N     7.0000    0    14.007    3.928098   -0.543223    0.532988
  24 C     6.0000    0    12.011    1.711297    0.248227    1.507681
  25 N     7.0000    0    14.007   -0.564414   -0.151699    0.451739
  26 C     6.0000    0    12.011    6.188436   -2.719664   -2.854196
  27 N     7.0000    0    14.007    8.360861   -2.326649   -1.567104
  28 C     6.0000    0    12.011   10.543250   -3.066282   -2.681274
  29 N     7.0000    0    14.007   10.584518   -4.216124   -4.984445
  30 C     6.0000    0    12.011    8.339864   -4.559740   -6.122973
  31 N     7.0000    0    14.007    6.095048   -3.841607   -5.157378
  32 H     1.0000    0     1.008    8.335189   -5.488048   -7.984382
  33 H     1.0000    0     1.008    1.771282    1.303707    3.298353
  34 C     6.0000    0    12.011  -15.073833   -1.404056   -2.580111
  35 C     6.0000    0    12.011  -17.612189   -0.706737   -2.494691
  36 C     6.0000    0    12.011  -18.303136    1.668591   -1.578332
  37 C     6.0000    0    12.011  -16.440791    3.351796   -0.763959
  38 C     6.0000    0    12.011  -13.902420    2.655473   -0.831284
  39 C     6.0000    0    12.011  -13.187795    0.254287   -1.718873
  40 C     6.0000    0    12.011  -10.482414   -0.516175   -1.869558
  41 C     6.0000    0    12.011   -8.659961    0.146133    0.110144
  42 N     7.0000    0    14.007   -6.188075   -0.230944   -0.184228
  43 C     6.0000    0    12.011   -5.434966   -1.408974   -2.370822
  44 C     6.0000    0    12.011   -7.254592   -2.288341   -4.201587
  45 N     7.0000    0    14.007   -9.794924   -1.774619   -3.936168
  46 C     6.0000    0    12.011   -2.932101   -1.999106   -3.041254
  47 S    16.0000    0    32.060   -2.894373   -3.648963   -5.902714
  48 C     6.0000    0    12.011   -6.142626   -3.555817   -6.230774
  49 C     6.0000    0    12.011   -9.464341    1.200576    2.592408
  50 C     6.0000    0    12.011   -7.942194    3.020006    3.787227
  51 C     6.0000    0    12.011   -8.626169    4.010086    6.129315
  52 C     6.0000    0    12.011  -10.822205    3.175609    7.330087
  53 C     6.0000    0    12.011  -12.320601    1.328765    6.186193
  54 C     6.0000    0    12.011  -11.651998    0.345381    3.837014
  55 H     1.0000    0     1.008  -12.810742   -1.119066    2.980732
  56 H     1.0000    0     1.008  -14.012868    0.647810    7.130534
  57 H     1.0000    0     1.008  -11.354661    3.946513    9.158009
  58 H     1.0000    0     1.008   -7.442380    5.430346    7.025000
  59 H     1.0000    0     1.008   -6.227985    3.655019    2.850816
  60 H     1.0000    0     1.008  -12.463570    3.989778   -0.222830
  61 H     1.0000    0     1.008  -16.967804    5.214859   -0.078139
  62 H     1.0000    0     1.008  -20.282621    2.212839   -1.513438
  63 H     1.0000    0     1.008  -19.055003   -2.014949   -3.148588
  64 H     1.0000    0     1.008  -14.528507   -3.249603   -3.298522
  65 H     1.0000    0     1.008   19.612695   -2.549601    2.096331
  66 H     1.0000    0     1.008   -7.101275   -4.380710   -7.839880

--------------------------------
INTERNAL COORDINATES (ANGSTROEM)
--------------------------------
 C      0   0   0     0.000000000000     0.00000000     0.00000000
 C      1   0   0     1.392238520087     0.00000000     0.00000000
 C      2   1   0     1.408414432654   119.26635828     0.00000000
 C      3   2   1     1.423721780938   118.13411318   359.30644228
 C      4   3   2     1.403511559621   122.74311572     0.88150179
 C      5   4   3     1.392281658910   117.48148961   359.54974380
 C      3   2   1     1.456702731943   135.29705453   181.05174822
 C      7   3   2     1.427533070055   105.85108684   177.51385456
 N      8   7   3     1.382553988261   109.40469208     1.31849263
 C      8   7   3     1.402044804163   123.28201198   182.05652726
 C     10   8   7     1.393004798565   117.43131886     0.90095980
 C     11  10   8     1.400147893092   120.65932870   359.40610986
 C     12  11  10     1.406838603699   122.60749693   359.38552496
 H     12  11  10     1.086589163726   119.21332835   180.65295519
 H      9   8   7     1.012543842596   125.33890804   180.80072987
 H     11  10   8     1.086403763953   119.82249883   179.58657533
 H      2   1   3     1.085257024788   119.66917619   179.21778921
 H      5   4   3     1.086778781476   121.11847735   179.77279311
 H      6   5   4     1.086909858875   119.61026471   179.95472539
 H      1   2   3     1.086723601362   119.30447066   180.31266057
 C     17   2   1     5.079039341638   146.91276035   310.26804605
 N     21  17   2     1.362322821485    53.13954034   210.24994954
 C     22  21  17     1.349826269714   116.80433407    19.40216835
 N     23  22  21     1.359409262878   123.34553447   359.90701541
 C     24  23  22     1.348169309917   115.97968218     0.00000000
 N     25  24  23     1.344340553661   124.85702375   359.93563360
 C     23  22  21     1.489896330759   118.64189842   180.78121666
 N     27  23  22     1.352303644138   117.87351376   183.40419237
 C     28  27  23     1.354451284498   117.46163553   181.92865386
 N     29  28  27     1.362406132570   122.15002966   358.57066765
 C     30  29  28     1.344233907622   116.56417095     0.73594255
 N     31  30  29     1.347822230392   124.80204904     0.36662591
 H     31  30  29     1.100716681503   117.60939330   180.07720786
 H     25  24  23     1.100401185400   117.51830512   180.08704054
 C     21  17   2     7.691012595509   159.99406739    55.60700057
 C     35  21  17     1.393736953279   164.05391794     1.06271295
 C     36  35  21     1.395995025197   120.13802098   356.10420374
 C     37  36  35     1.396537637725   119.77823890     0.45871583
 C     38  37  36     1.393327155719   120.24873057   359.12863700
 C     35  21  17     1.404960430623    43.54027184   355.16914328
 C     40  35  21     1.490683849505   119.60671097   359.15414467
 C     41  40  35     1.466423222560   121.87157648   217.29992963
 N     42  41  40     1.332335641204   121.75942866   189.49584591
 C     43  42  41     1.373428507883   116.83128348   356.24826065
 C     44  43  42     1.443016941586   121.22260453   357.40291114
 N     41  40  35     1.331088628346   116.31253634    39.21345297
 C     44  43  42     1.406264853409   125.91819351   180.46230492
 S     47  44  43     1.748000344452   109.88992399   176.65550130
 C     45  44  43     1.396121721074   112.95776341   183.26320833
 C     42  41  40     1.489284710910   122.11929270    11.47200328
 C     50  42  41     1.405545786071   119.31533399   215.44127561
 C     51  50  42     1.393401066475   120.58537468   181.03547482
 C     52  51  50     1.396143427848   120.13909682     0.83722005
 C     53  52  51     1.396518423544   119.77979498     0.55045020
 C     54  53  52     1.393326270272   120.25968944   359.04225862
 H     55  54  53     1.087135428606   119.66209675   178.75941374
 H     54  53  52     1.086972782611   120.03269317   178.84403890
 H     53  52  51     1.086953830595   120.13785732   179.93471932
 H     52  51  50     1.087165689490   119.87085816   180.61632530
 H     51  50  42     1.086891607319   119.01144011     1.47232630
 H     39  38  37     1.087182478448   119.72568609   178.98507477
 H     38  37  36     1.086953336137   120.03131076   178.98825096
 H     37  36  35     1.086912652305   120.13097846   179.94326485
 H     36  35  21     1.087161473800   119.86325045   175.92960513
 H     35  21  17     1.087009922307    75.57389890   177.40274178
 H     10   8   7     1.086663860191   121.11988608   180.34236672
 H     49  45  44     1.083027918595   126.93586021   180.24106471

---------------------------
INTERNAL COORDINATES (A.U.)
---------------------------
 C      0   0   0     0.000000000000     0.00000000     0.00000000
 C      1   0   0     2.630949516061     0.00000000     0.00000000
 C      2   1   0     2.661517560779   119.26635828     0.00000000
 C      3   2   1     2.690444256871   118.13411318   359.30644228
 C      4   3   2     2.652252473476   122.74311572     0.88150179
 C      5   4   3     2.631031036622   117.48148961   359.54974380
 C      3   2   1     2.752769221907   135.29705453   181.05174822
 C      7   3   2     2.697646549520   105.85108684   177.51385456
 N      8   7   3     2.612648403174   109.40469208     1.31849263
 C      8   7   3     2.649480707356   123.28201198   182.05652726
 C     10   8   7     2.632397572525   117.43131886     0.90095980
 C     11  10   8     2.645896064930   120.65932870   359.40610986
 C     12  11  10     2.658539675619   122.60749693   359.38552496
 H     12  11  10     2.053355939528   119.21332835   180.65295519
 H      9   8   7     1.913430561095   125.33890804   180.80072987
 H     11  10   8     2.053005584732   119.82249883   179.58657533
 H      2   1   3     2.050838561763   119.66917619   179.21778921
 H      5   4   3     2.053714265147   121.11847735   179.77279311
 H      6   5   4     2.053961965534   119.61026471   179.95472539
 H      1   2   3     2.053609989842   119.30447066   180.31266057
 C     17   2   1     9.597993379108   146.91276035   310.26804605
 N     21  17   2     2.574417038598    53.13954034   210.24994954
 C     22  21  17     2.550801978132   116.80433407    19.40216835
 N     23  22  21     2.568911210755   123.34553447   359.90701541
 C     24  23  22     2.547670777901   115.97968218     0.00000000
 N     25  24  23     2.540435477143   124.85702375   359.93563360
 C     23  22  21     2.815496033069   118.64189842   180.78121666
 N     27  23  22     2.555483537325   117.87351376   183.40419237
 C     28  27  23     2.559541989440   117.46163553   181.92865386
 N     29  28  27     2.574574473732   122.15002966   358.57066765
 C     30  29  28     2.540233945336   116.56417095     0.73594255
 N     31  30  29     2.547014892652   124.80204904     0.36662591
 H     31  30  29     2.080053079080   117.60939330   180.07720786
 H     25  24  23     2.079456877849   117.51830512   180.08704054
 C     21  17   2    14.533907498050   159.99406739    55.60700057
 C     35  21  17     2.633781144423   164.05391794     1.06271295
 C     36  35  21     2.638048281938   120.13802098   356.10420374
 C     37  36  35     2.639073671014   119.77823890     0.45871583
 C     38  37  36     2.633006739265   120.24873057   359.12863700
 C     35  21  17     2.654990442874    43.54027184   355.16914328
 C     40  35  21     2.816984227824   119.60671097   359.15414467
 C     41  40  35     2.771138287061   121.87157648   217.29992963
 N     42  41  40     2.517749480338   121.75942866   189.49584591
 C     43  42  41     2.595403744419   116.83128348   356.24826065
 C     44  43  42     2.726906826206   121.22260453   357.40291114
 N     41  40  35     2.515392967551   116.31253634    39.21345297
 C     44  43  42     2.657455444703   125.91819351   180.46230492
 S     47  44  43     3.303241933014   109.88992399   176.65550130
 C     45  44  43     2.638287702448   112.95776341   183.26320833
 C     42  41  40     2.814340239057   122.11929270    11.47200328
 C     50  42  41     2.656096604361   119.31533399   215.44127561
 C     51  50  42     2.633146410352   120.58537468   181.03547482
 C     52  51  50     2.638328722307   120.13909682     0.83722005
 C     53  52  51     2.639037361473   119.77979498     0.55045020
 C     54  53  52     2.633005066011   120.25968944   359.04225862
 H     55  54  53     2.054388230548   119.66209675   178.75941374
 H     54  53  52     2.054080874161   120.03269317   178.84403890
 H     53  52  51     2.054045060041   120.13785732   179.93471932
 H     52  51  50     2.054445415331   119.87085816   180.61632530
 H     51  50  42     2.053927475090   119.01144011     1.47232630
 H     39  38  37     2.054477141865   119.72568609   178.98507477
 H     38  37  36     2.054044125651   120.03131076   178.98825096
 H     37  36  35     2.053967244350   120.13097846   179.94326485
 H     36  35  21     2.054437448832   119.86325045   175.92960513
 H     35  21  17     2.054151058015    75.57389890   177.40274178
 H     10   8   7     2.053497095391   121.11988608   180.34236672
 H     49  45  44     2.046626161535   126.93586021   180.24106471

---------------------
BASIS SET INFORMATION
---------------------
There are 4 groups of distinct atoms

 Group   1 Type C   : 11s6p2d1f contracted to 5s3p2d1f pattern {62111/411/11/1}
 Group   2 Type N   : 11s6p2d1f contracted to 5s3p2d1f pattern {62111/411/11/1}
 Group   3 Type H   : 5s1p contracted to 3s1p pattern {311/1}
 Group   4 Type S   : 14s9p3d1f contracted to 5s5p2d1f pattern {73211/51111/21/1}

Atom   0C    basis set group =>   1
Atom   1C    basis set group =>   1
Atom   2C    basis set group =>   1
Atom   3C    basis set group =>   1
Atom   4C    basis set group =>   1
Atom   5C    basis set group =>   1
Atom   6C    basis set group =>   1
Atom   7C    basis set group =>   1
Atom   8N    basis set group =>   2
Atom   9C    basis set group =>   1
Atom  10C    basis set group =>   1
Atom  11C    basis set group =>   1
Atom  12C    basis set group =>   1
Atom  13H    basis set group =>   3
Atom  14H    basis set group =>   3
Atom  15H    basis set group =>   3
Atom  16H    basis set group =>   3
Atom  17H    basis set group =>   3
Atom  18H    basis set group =>   3
Atom  19H    basis set group =>   3
Atom  20C    basis set group =>   1
Atom  21N    basis set group =>   2
Atom  22C    basis set group =>   1
Atom  23N    basis set group =>   2
Atom  24C    basis set group =>   1
Atom  25N    basis set group =>   2
Atom  26C    basis set group =>   1
Atom  27N    basis set group =>   2
Atom  28C    basis set group =>   1
Atom  29N    basis set group =>   2
Atom  30C    basis set group =>   1
Atom  31N    basis set group =>   2
Atom  32H    basis set group =>   3
Atom  33H    basis set group =>   3
Atom  34C    basis set group =>   1
Atom  35C    basis set group =>   1
Atom  36C    basis set group =>   1
Atom  37C    basis set group =>   1
Atom  38C    basis set group =>   1
Atom  39C    basis set group =>   1
Atom  40C    basis set group =>   1
Atom  41C    basis set group =>   1
Atom  42N    basis set group =>   2
Atom  43C    basis set group =>   1
Atom  44C    basis set group =>   1
Atom  45N    basis set group =>   2
Atom  46C    basis set group =>   1
Atom  47S    basis set group =>   4
Atom  48C    basis set group =>   1
Atom  49C    basis set group =>   1
Atom  50C    basis set group =>   1
Atom  51C    basis set group =>   1
Atom  52C    basis set group =>   1
Atom  53C    basis set group =>   1
Atom  54C    basis set group =>   1
Atom  55H    basis set group =>   3
Atom  56H    basis set group =>   3
Atom  57H    basis set group =>   3
Atom  58H    basis set group =>   3
Atom  59H    basis set group =>   3
Atom  60H    basis set group =>   3
Atom  61H    basis set group =>   3
Atom  62H    basis set group =>   3
Atom  63H    basis set group =>   3
Atom  64H    basis set group =>   3
Atom  65H    basis set group =>   3
Atom  66H    basis set group =>   3
-------------------------------
AUXILIARY BASIS SET INFORMATION
-------------------------------
There are 4 groups of distinct atoms

 Group   1 Type C   : 12s5p4d2f1g contracted to 6s4p3d1f1g pattern {711111/2111/211/2/1}
 Group   2 Type N   : 12s5p4d2f1g contracted to 6s4p3d1f1g pattern {711111/2111/211/2/1}
 Group   3 Type H   : 5s2p1d contracted to 3s1p1d pattern {311/2/1}
 Group   4 Type S   : 14s5p5d2f1g contracted to 8s4p3d1f1g pattern {71111111/2111/311/2/1}

Atom   0C    basis set group =>   1
Atom   1C    basis set group =>   1
Atom   2C    basis set group =>   1
Atom   3C    basis set group =>   1
Atom   4C    basis set group =>   1
Atom   5C    basis set group =>   1
Atom   6C    basis set group =>   1
Atom   7C    basis set group =>   1
Atom   8N    basis set group =>   2
Atom   9C    basis set group =>   1
Atom  10C    basis set group =>   1
Atom  11C    basis set group =>   1
Atom  12C    basis set group =>   1
Atom  13H    basis set group =>   3
Atom  14H    basis set group =>   3
Atom  15H    basis set group =>   3
Atom  16H    basis set group =>   3
Atom  17H    basis set group =>   3
Atom  18H    basis set group =>   3
Atom  19H    basis set group =>   3
Atom  20C    basis set group =>   1
Atom  21N    basis set group =>   2
Atom  22C    basis set group =>   1
Atom  23N    basis set group =>   2
Atom  24C    basis set group =>   1
Atom  25N    basis set group =>   2
Atom  26C    basis set group =>   1
Atom  27N    basis set group =>   2
Atom  28C    basis set group =>   1
Atom  29N    basis set group =>   2
Atom  30C    basis set group =>   1
Atom  31N    basis set group =>   2
Atom  32H    basis set group =>   3
Atom  33H    basis set group =>   3
Atom  34C    basis set group =>   1
Atom  35C    basis set group =>   1
Atom  36C    basis set group =>   1
Atom  37C    basis set group =>   1
Atom  38C    basis set group =>   1
Atom  39C    basis set group =>   1
Atom  40C    basis set group =>   1
Atom  41C    basis set group =>   1
Atom  42N    basis set group =>   2
Atom  43C    basis set group =>   1
Atom  44C    basis set group =>   1
Atom  45N    basis set group =>   2
Atom  46C    basis set group =>   1
Atom  47S    basis set group =>   4
Atom  48C    basis set group =>   1
Atom  49C    basis set group =>   1
Atom  50C    basis set group =>   1
Atom  51C    basis set group =>   1
Atom  52C    basis set group =>   1
Atom  53C    basis set group =>   1
Atom  54C    basis set group =>   1
Atom  55H    basis set group =>   3
Atom  56H    basis set group =>   3
Atom  57H    basis set group =>   3
Atom  58H    basis set group =>   3
Atom  59H    basis set group =>   3
Atom  60H    basis set group =>   3
Atom  61H    basis set group =>   3
Atom  62H    basis set group =>   3
Atom  63H    basis set group =>   3
Atom  64H    basis set group =>   3
Atom  65H    basis set group =>   3
Atom  66H    basis set group =>   3
-------------------------
ECP PARAMETER INFORMATION
-------------------------



--------------------------------------------------------------------------
[[36683,1],0]: A high-performance Open MPI point-to-point messaging module
was unable to find any relevant network interfaces:

Module: OpenFabrics (openib)
  Host: cx1-136-10-1

Another transport will be used instead, although this may result in
lower performance.
--------------------------------------------------------------------------


           ************************************************************
           *        Program running with 24 parallel MPI-processes    *
           *              working on a common directory               *
           ************************************************************
------------------------------------------------------------------------------
                           ORCA GTO INTEGRAL CALCULATION
                           -- RI-GTO INTEGRALS CHOSEN --
------------------------------------------------------------------------------

                         BASIS SET STATISTICS AND STARTUP INFO

Gaussian basis set:
 # of primitive gaussian shells          ... 1053
 # of primitive gaussian functions       ... 2301
 # of contracted shells                  ...  592
 # of contracted basis functions         ... 1558
 Highest angular momentum                ...    3
 Maximum contraction depth               ...    7
Auxiliary gaussian basis set:
 # of primitive gaussian shells          ... 1275
 # of primitive gaussian functions       ... 3563
 # of contracted shells                  ...  797
 # of contracted aux-basis functions     ... 2487
 Highest angular momentum                ...    4
 Maximum contraction depth               ...    7
Ratio of auxiliary to basis functions    ...  1.60
Integral package used                  ... LIBINT
 One Electron integrals                  
   ECP integrals                         ... done
 Ordering auxiliary basis shells         ... done
 Integral threshhold             Thresh  ...  2.500e-11
 Primitive cut-off               TCut    ...  2.500e-12
 Pre-screening matrix                    ... done
 Shell pair data                         ... 
 Ordering of the shell pairs             ... done (   0.025 sec) 76686 of 175528 pairs
 Determination of significant pairs      ... done (   0.000 sec)
 Creation of shell pair data             ... done (   0.024 sec)
 Storage of shell pair data              ... done (   0.189 sec)
 Shell pair data done in (   0.238 sec)
 Computing two index integrals           ... done
 Cholesky decomposition of the V-matrix  ... done


Timings:
 Total evaluation time                   ...  10.492 sec (  0.175 min)
 One electron matrix time                ...   3.380 sec (  0.056 min) = 32.2%
 Schwartz matrix evaluation time         ...   4.140 sec (  0.069 min) = 39.5%
 Two index repulsion integral time       ...   1.552 sec (  0.026 min) = 14.8%
 Cholesky decomposition of V             ...   1.137 sec (  0.019 min) = 10.8%
 Three index repulsion integral time     ...   0.000 sec (  0.000 min) =  0.0%

--------------------------------------------------------------------------
[[36861,1],3]: A high-performance Open MPI point-to-point messaging module
was unable to find any relevant network interfaces:

Module: OpenFabrics (openib)
  Host: cx1-136-10-1

Another transport will be used instead, although this may result in
lower performance.
--------------------------------------------------------------------------


           ************************************************************
           *        Program running with 24 parallel MPI-processes    *
           *              working on a common directory               *
           ************************************************************
-------------------------------------------------------------------------------
                                 ORCA SCF
-------------------------------------------------------------------------------

------------
SCF SETTINGS
------------
Hamiltonian:
 Density Functional     Method          .... DFT(GTOs)
 Exchange Functional    Exchange        .... WB97X-D3
 Correlation Functional Correlation     .... WB97X-D3
 Gradients option       PostSCFGGA      .... off
 Hybrid DFT is turned on
   Fraction HF Exchange ScalHFX         ....  0.195728
   Scaling of DF-GGA-X  ScalDFX         ....  0.000000
   Scaling of DF-GGA-C  ScalDFC         ....  1.000000
   Scaling of DF-LDA-C  ScalLDAC        ....  1.000000
   Perturbative correction              ....  0.000000
 Long-range corrected/Screened/Range-Separated Hybrid DFT is turned on
   Amount of maximum screened exact exchange              ....  0.804272
   Range separation parameter mu (erf(mu*r12)/r12)        ....  0.250000
 RI-approximation to the Coulomb term is turned on
   Number of auxiliary basis functions  .... 2487
   RIJ-COSX (HFX calculated with COS-X)).... on


General Settings:
 Integral files         IntName         .... total
 Hartree-Fock type      HFTyp           .... RHF
 Total Charge           Charge          ....    0
 Multiplicity           Mult            ....    1
 Number of Electrons    NEL             ....  316
 Basis Dimension        Dim             .... 1558
 Nuclear Repulsion      ENuc            ....   4958.3188003192 Eh

Convergence Acceleration:
 DIIS                   CNVDIIS         .... on
   Start iteration      DIISMaxIt       ....    12
   Startup error        DIISStart       ....  0.200000
   # of expansion vecs  DIISMaxEq       ....     5
   Bias factor          DIISBfac        ....   1.050
   Max. coefficient     DIISMaxC        ....  10.000
 Newton-Raphson         CNVNR           .... off
 SOSCF                  CNVSOSCF        .... on
   Start iteration      SOSCFMaxIt      ....   150
   Startup grad/error   SOSCFStart      ....  0.003300
 Level Shifting         CNVShift        .... on
   Level shift para.    LevelShift      ....    0.2500
   Turn off err/grad.   ShiftErr        ....    0.0010
 Zerner damping         CNVZerner       .... off
 Static damping         CNVDamp         .... on
   Fraction old density DampFac         ....    0.7000
   Max. Damping (<1)    DampMax         ....    0.9800
   Min. Damping (>=0)   DampMin         ....    0.0000
   Turn off err/grad.   DampErr         ....    0.1000
 Fernandez-Rico         CNVRico         .... off

SCF Procedure:
 Maximum # iterations   MaxIter         ....   125
 SCF integral mode      SCFMode         .... Direct
   Integral package                     .... LIBINT
 Reset frequeny         DirectResetFreq ....    20
 Integral Threshold     Thresh          ....  2.500e-11 Eh
 Primitive CutOff       TCut            ....  2.500e-12 Eh

Convergence Tolerance:
 Convergence Check Mode ConvCheckMode   .... Total+1el-Energy
 Convergence forced     ConvForced      .... 1
 Energy Change          TolE            ....  1.000e-08 Eh
 1-El. energy change                    ....  1.000e-05 Eh
 Orbital Gradient       TolG            ....  1.000e-05
 Orbital Rotation angle TolX            ....  1.000e-05
 DIIS Error             TolErr          ....  5.000e-07


Diagonalization of the overlap matrix:
Smallest eigenvalue                        ... 6.124e-06
Time for diagonalization                   ...    0.753 sec
Threshold for overlap eigenvalues          ... 1.000e-08
Number of eigenvalues below threshold      ... 0
Time for construction of square roots      ...    0.759 sec
Total time needed                          ...    1.522 sec

-------------------
DFT GRID GENERATION
-------------------

General Integration Accuracy     IntAcc      ...  5.010
Radial Grid Type                 RadialGrid  ... Gauss-Chebyshev
Angular Grid (max. acc.)         AngularGrid ... Lebedev-434
Angular grid pruning method      GridPruning ... 3 (G Style)
Weight generation scheme         WeightScheme... Becke
Basis function cutoff            BFCut       ...    1.0000e-11
Integration weight cutoff        WCut        ...    1.0000e-14
Grids for H and He will be reduced by one unit

# of grid points (after initial pruning)     ... 632710 (   0.0 sec)
# of grid points (after weights+screening)   ... 547210 (   3.3 sec)
nearest neighbour list constructed           ...    0.0 sec
Grid point re-assignment to atoms done       ...    0.3 sec
Grid point division into batches done        ...    5.6 sec
Reduced shell lists constructed in    7.0 sec

Total number of grid points                  ...   547210
Total number of batches                      ...     8588
Average number of points per batch           ...       63
Average number of grid points per atom       ...     8167
Average number of shells per batch           ...   159.99 (27.02%)
Average number of basis functions per batch  ...   412.28 (26.46%)
Average number of large shells per batch     ...   106.53 (66.58%)
Average number of large basis fcns per batch ...   274.04 (66.47%)
Maximum spatial batch extension              ...  11.57, 12.91, 12.52 au
Average spatial batch extension              ...   0.05,  0.05,  0.06 au

Time for grid setup =   12.498 sec

------------------------------
INITIAL GUESS: MODEL POTENTIAL
------------------------------
Loading Hartree-Fock densities                     ... done
Calculating cut-offs                               ... done
Setting up the integral package                    ... done
Initializing the effective Hamiltonian             ... done
Starting the Coulomb interaction                   ... done (   1.0 sec)
Reading the grid                                   ... done
Mapping shells                                     ... done
Starting the XC term evaluation                    ... done (   3.8 sec)
  promolecular density results
     # of electrons  =    315.989588831
     EX              =   -274.000853751
     EC              =    -10.767276874
     EX+EC           =   -284.768130626
Transforming the Hamiltonian                       ... done (   0.4 sec)
Diagonalizing the Hamiltonian                      ... done (   0.8 sec)
Back transforming the eigenvectors                 ... done (   0.2 sec)
Now organizing SCF variables                       ... done
                      ------------------
                      INITIAL GUESS DONE (  19.1 sec)
                      ------------------
--------------------
COSX GRID GENERATION
--------------------

General Integration Accuracy     IntAcc      ...  3.340
Radial Grid Type                 RadialGrid  ... Gauss-Chebyshev
Angular Grid (max. acc.)         AngularGrid ... Lebedev-50
Angular grid pruning method      GridPruning ... 3 (G Style)
Weight generation scheme         WeightScheme... Becke
Basis function cutoff            BFCut       ...    1.0000e-11
Integration weight cutoff        WCut        ...    1.0000e-14
Grids for H and He will be reduced by one unit

# of grid points (after initial pruning)     ...  33400 (   0.0 sec)
# of grid points (after weights+screening)   ...  30153 (   0.2 sec)
nearest neighbour list constructed           ...    0.0 sec
Grid point re-assignment to atoms done       ...    0.0 sec
Grid point division into batches done        ...    0.0 sec
Reduced shell lists constructed in    0.1 sec

Total number of grid points                  ...    30153
Total number of batches                      ...      504
Average number of points per batch           ...       59
Average number of grid points per atom       ...      450
Average number of shells per batch           ...   183.05 (30.92%)
Average number of basis functions per batch  ...   480.41 (30.83%)
Average number of large shells per batch     ...   123.59 (67.52%)
Average number of large basis fcns per batch ...   323.95 (67.43%)
Maximum spatial batch extension              ...   7.28, 11.37, 12.80 au
Average spatial batch extension              ...   0.14,  0.16,  0.19 au

Overlap Fitting                  UseSFitting ... on
Constructing numerical overlap ... done (      0.2 sec)
Inverting numerical overlap    ... done (      0.3 sec)
Obtaining analytic overlap     ... done (      0.0 sec)
Final contraction and storage  ... done (      1.2 sec)


General Integration Accuracy     IntAcc      ...  3.670
Radial Grid Type                 RadialGrid  ... Gauss-Chebyshev
Angular Grid (max. acc.)         AngularGrid ... Lebedev-50
Angular grid pruning method      GridPruning ... 3 (G Style)
Weight generation scheme         WeightScheme... Becke
Basis function cutoff            BFCut       ...    1.0000e-11
Integration weight cutoff        WCut        ...    1.0000e-14
Grids for H and He will be reduced by one unit

# of grid points (after initial pruning)     ...  41796 (   0.0 sec)
# of grid points (after weights+screening)   ...  37616 (   0.2 sec)
nearest neighbour list constructed           ...    0.0 sec
Grid point re-assignment to atoms done       ...    0.0 sec
Grid point division into batches done        ...    0.0 sec
Reduced shell lists constructed in    0.2 sec

Total number of grid points                  ...    37616
Total number of batches                      ...      617
Average number of points per batch           ...       60
Average number of grid points per atom       ...      561
Average number of shells per batch           ...   182.44 (30.82%)
Average number of basis functions per batch  ...   478.81 (30.73%)
Average number of large shells per batch     ...   123.26 (67.56%)
Average number of large basis fcns per batch ...   323.48 (67.56%)
Maximum spatial batch extension              ...   7.21, 10.79, 13.98 au
Average spatial batch extension              ...   0.12,  0.14,  0.17 au

Overlap Fitting                  UseSFitting ... on
Constructing numerical overlap ... done (      0.3 sec)
Inverting numerical overlap    ... done (      0.3 sec)
Obtaining analytic overlap     ... done (      0.0 sec)
Final contraction and storage  ... done (      1.3 sec)


General Integration Accuracy     IntAcc      ...  4.010
Radial Grid Type                 RadialGrid  ... Gauss-Chebyshev
Angular Grid (max. acc.)         AngularGrid ... Lebedev-110
Angular grid pruning method      GridPruning ... 3 (G Style)
Weight generation scheme         WeightScheme... Becke
Basis function cutoff            BFCut       ...    1.0000e-11
Integration weight cutoff        WCut        ...    1.0000e-14
Grids for H and He will be reduced by one unit

# of grid points (after initial pruning)     ...  81720 (   0.0 sec)
# of grid points (after weights+screening)   ...  72853 (   0.4 sec)
nearest neighbour list constructed           ...    0.0 sec
Grid point re-assignment to atoms done       ...    0.0 sec
Grid point division into batches done        ...    0.1 sec
Reduced shell lists constructed in    0.4 sec

Total number of grid points                  ...    72853
Total number of batches                      ...     1172
Average number of points per batch           ...       62
Average number of grid points per atom       ...     1087
Average number of shells per batch           ...   177.60 (30.00%)
Average number of basis functions per batch  ...   465.36 (29.87%)
Average number of large shells per batch     ...   119.16 (67.09%)
Average number of large basis fcns per batch ...   310.80 (66.79%)
Maximum spatial batch extension              ...  10.27, 14.23, 20.58 au
Average spatial batch extension              ...   0.11,  0.13,  0.14 au

Overlap Fitting                  UseSFitting ... on
Constructing numerical overlap ... done (      0.4 sec)
Inverting numerical overlap    ... done (      0.3 sec)
Obtaining analytic overlap     ... done (      0.0 sec)
Final contraction and storage  ... done (      1.2 sec)

Time for X-Grid setup             =    7.565 sec
--------------
SCF ITERATIONS
--------------
ITER       Energy         Delta-E        Max-DP      RMS-DP      [F,P]     Damp
               ***  Starting incremental Fock matrix formation  ***
  0  -2274.6030022532   0.000000000000 0.11694689  0.00049769  0.1788642 0.7000
  1  -2274.9740739912  -0.371071738059 0.12165750  0.00042319  0.0970409 0.7000
                               ***Turning on DIIS***
  2  -2275.1627902731  -0.188716281886 0.23163844  0.00091286  0.0477900 0.0000
  3  -2275.4729411908  -0.310150917670 0.07920163  0.00025942  0.0430221 0.0000
  4  -2275.5202388667  -0.047297675862 0.01562940  0.00009445  0.0069536 0.0000
  5  -2275.5218823846  -0.001643517989 0.00813382  0.00003939  0.0045481 0.0000
                      *** Initiating the SOSCF procedure ***
                           *** Shutting down DIIS ***
                      *** Re-Reading the Fockian *** 
                      *** Removing any level shift *** 
ITER      Energy       Delta-E        Grad      Rot      Max-DP    RMS-DP
  6  -2275.52231365  -0.0004312687  0.002369  0.002369  0.002875  0.000022
               *** Restarting incremental Fock matrix formation ***
  7  -2275.52248808  -0.0001744283  0.001522  0.004732  0.007013  0.000059
  8  -2275.52257315  -0.0000850734  0.000568  0.005877  0.005346  0.000049
  9  -2275.52259758  -0.0000244234  0.000511  0.001054  0.004606  0.000038
 10  -2275.52261209  -0.0000145090  0.000076  0.000358  0.000626  0.000006
 11  -2275.52261274  -0.0000006495  0.000047  0.000202  0.000427  0.000004
 12  -2275.52261325  -0.0000005083  0.000018  0.000111  0.000241  0.000001
 13  -2275.52261322   0.0000000203  0.000010  0.000058  0.000155  0.000001
 14  -2275.52261337  -0.0000001422  0.000004  0.000010  0.000214  0.000001
 15  -2275.52261343  -0.0000000638  0.000003  0.000004  0.000170  0.000001
                  ***Gradient check signals convergence***
              ***Rediagonalizing the Fockian in SOSCF/NRSCF***

               *****************************************************
               *                     SUCCESS                       *
               *           SCF CONVERGED AFTER  16 CYCLES          *
               *****************************************************

Old exchange energy                            =    -88.342417556 Eh
New exchange energy                            =    -88.342797919 Eh
Exchange energy change after final integration =     -0.000380363 Eh
Total energy after final integration           =  -2275.522993703 Eh
Final COS-X integration done in                =    90.913 sec

----------------
TOTAL SCF ENERGY
----------------

Total Energy       :        -2275.52299370 Eh          -61920.12862 eV

Components:
Nuclear Repulsion  :         4958.31880032 Eh          134922.71389 eV
Electronic Energy  :        -7233.84179402 Eh         -196842.84251 eV
One Electron Energy:       -12962.68108602 Eh         -352732.48492 eV
Two Electron Energy:         5728.83929200 Eh          155889.64241 eV

Virial components:
Potential Energy   :        -4540.03321569 Eh         -123540.58448 eV
Kinetic Energy     :         2264.51022198 Eh           61620.45586 eV
Virial Ratio       :            2.00486320


DFT components:
N(Alpha)           :      157.999949720962 electrons
N(Beta)            :      157.999949720962 electrons
N(Total)           :      315.999899441925 electrons
E(XC)              :     -202.275502523570 Eh       

---------------
SCF CONVERGENCE
---------------

  Last Energy change         ...    9.0510e-08  Tolerance :   1.0000e-08
  Last MAX-Density change    ...    9.7427e-14  Tolerance :   1.0000e-07
  Last RMS-Density change    ...    1.8513e-16  Tolerance :   5.0000e-09
  Last Orbital Gradient      ...    4.6937e-07  Tolerance :   1.0000e-05
  Last Orbital Rotation      ...    2.0590e-06  Tolerance :   1.0000e-05

             **** THE GBW FILE WAS UPDATED (total.gbw) ****
             **** DENSITY FILE WAS UPDATED (total.scfp.tmp) ****
             **** ENERGY FILE WAS UPDATED (total.en.tmp) ****
----------------
ORBITAL ENERGIES
----------------

  NO   OCC          E(Eh)            E(eV) 
   0   2.0000     -89.008645     -2422.0484 
   1   2.0000     -14.464627      -393.6025 
   2   2.0000     -14.450262      -393.2116 
   3   2.0000     -14.445772      -393.0894 
   4   2.0000     -14.444685      -393.0599 
   5   2.0000     -14.443078      -393.0161 
   6   2.0000     -14.442314      -392.9953 
   7   2.0000     -14.441987      -392.9864 
   8   2.0000     -14.440791      -392.9539 
   9   2.0000     -14.440059      -392.9340 
  10   2.0000     -10.391903      -282.7780 
  11   2.0000     -10.387891      -282.6689 
  12   2.0000     -10.387606      -282.6611 
  13   2.0000     -10.385156      -282.5945 
  14   2.0000     -10.373955      -282.2897 
  15   2.0000     -10.373034      -282.2646 
  16   2.0000     -10.354425      -281.7582 
  17   2.0000     -10.353029      -281.7202 
  18   2.0000     -10.339945      -281.3642 
  19   2.0000     -10.334701      -281.2215 
  20   2.0000     -10.333777      -281.1964 
  21   2.0000     -10.332188      -281.1531 
  22   2.0000     -10.327332      -281.0210 
  23   2.0000     -10.320814      -280.8436 
  24   2.0000     -10.305110      -280.4163 
  25   2.0000     -10.304148      -280.3901 
  26   2.0000     -10.303025      -280.3596 
  27   2.0000     -10.298762      -280.2436 
  28   2.0000     -10.293435      -280.0986 
  29   2.0000     -10.293147      -280.0908 
  30   2.0000     -10.292663      -280.0776 
  31   2.0000     -10.291643      -280.0498 
  32   2.0000     -10.291256      -280.0393 
  33   2.0000     -10.290904      -280.0297 
  34   2.0000     -10.289880      -280.0019 
  35   2.0000     -10.289683      -279.9965 
  36   2.0000     -10.289458      -279.9904 
  37   2.0000     -10.288813      -279.9728 
  38   2.0000     -10.288151      -279.9548 
  39   2.0000     -10.287093      -279.9260 
  40   2.0000     -10.283511      -279.8286 
  41   2.0000     -10.282781      -279.8087 
  42   2.0000     -10.279781      -279.7271 
  43   2.0000     -10.279215      -279.7117 
  44   2.0000     -10.272138      -279.5191 
  45   2.0000     -10.266119      -279.3553 
  46   2.0000      -8.103469      -220.5066 
  47   2.0000      -6.056373      -164.8023 
  48   2.0000      -6.052150      -164.6874 
  49   2.0000      -6.051621      -164.6730 
  50   2.0000      -1.147978       -31.2381 
  51   2.0000      -1.134286       -30.8655 
  52   2.0000      -1.104735       -30.0614 
  53   2.0000      -1.101937       -29.9852 
  54   2.0000      -1.038247       -28.2521 
  55   2.0000      -1.033324       -28.1182 
  56   2.0000      -1.028672       -27.9916 
  57   2.0000      -1.019056       -27.7299 
  58   2.0000      -1.007079       -27.4040 
  59   2.0000      -1.001803       -27.2604 
  60   2.0000      -0.983141       -26.7526 
  61   2.0000      -0.979456       -26.6524 
  62   2.0000      -0.968930       -26.3659 
  63   2.0000      -0.957507       -26.0551 
  64   2.0000      -0.912564       -24.8321 
  65   2.0000      -0.898702       -24.4549 
  66   2.0000      -0.888284       -24.1714 
  67   2.0000      -0.878754       -23.9121 
  68   2.0000      -0.871697       -23.7201 
  69   2.0000      -0.867970       -23.6187 
  70   2.0000      -0.866284       -23.5728 
  71   2.0000      -0.851573       -23.1725 
  72   2.0000      -0.846892       -23.0451 
  73   2.0000      -0.840254       -22.8645 
  74   2.0000      -0.834047       -22.6956 
  75   2.0000      -0.801476       -21.8093 
  76   2.0000      -0.788197       -21.4479 
  77   2.0000      -0.787114       -21.4185 
  78   2.0000      -0.772808       -21.0292 
  79   2.0000      -0.753645       -20.5077 
  80   2.0000      -0.743425       -20.2296 
  81   2.0000      -0.727983       -19.8094 
  82   2.0000      -0.719146       -19.5690 
  83   2.0000      -0.717437       -19.5225 
  84   2.0000      -0.708806       -19.2876 
  85   2.0000      -0.707990       -19.2654 
  86   2.0000      -0.700964       -19.0742 
  87   2.0000      -0.697274       -18.9738 
  88   2.0000      -0.684970       -18.6390 
  89   2.0000      -0.665486       -18.1088 
  90   2.0000      -0.659097       -17.9350 
  91   2.0000      -0.645938       -17.5769 
  92   2.0000      -0.640871       -17.4390 
  93   2.0000      -0.635846       -17.3023 
  94   2.0000      -0.630263       -17.1503 
  95   2.0000      -0.623258       -16.9597 
  96   2.0000      -0.612335       -16.6625 
  97   2.0000      -0.608125       -16.5479 
  98   2.0000      -0.588881       -16.0243 
  99   2.0000      -0.587786       -15.9945 
 100   2.0000      -0.580921       -15.8077 
 101   2.0000      -0.577100       -15.7037 
 102   2.0000      -0.569848       -15.5064 
 103   2.0000      -0.562613       -15.3095 
 104   2.0000      -0.559570       -15.2267 
 105   2.0000      -0.555166       -15.1068 
 106   2.0000      -0.553730       -15.0678 
 107   2.0000      -0.553126       -15.0513 
 108   2.0000      -0.550689       -14.9850 
 109   2.0000      -0.542683       -14.7672 
 110   2.0000      -0.539222       -14.6730 
 111   2.0000      -0.537652       -14.6303 
 112   2.0000      -0.532114       -14.4796 
 113   2.0000      -0.528604       -14.3841 
 114   2.0000      -0.526472       -14.3260 
 115   2.0000      -0.525016       -14.2864 
 116   2.0000      -0.524497       -14.2723 
 117   2.0000      -0.520301       -14.1581 
 118   2.0000      -0.520127       -14.1534 
 119   2.0000      -0.516766       -14.0619 
 120   2.0000      -0.504233       -13.7209 
 121   2.0000      -0.492951       -13.4139 
 122   2.0000      -0.490563       -13.3489 
 123   2.0000      -0.487097       -13.2546 
 124   2.0000      -0.480139       -13.0653 
 125   2.0000      -0.470358       -12.7991 
 126   2.0000      -0.466328       -12.6894 
 127   2.0000      -0.464671       -12.6443 
 128   2.0000      -0.462377       -12.5819 
 129   2.0000      -0.461023       -12.5451 
 130   2.0000      -0.453471       -12.3396 
 131   2.0000      -0.450417       -12.2565 
 132   2.0000      -0.448113       -12.1938 
 133   2.0000      -0.444549       -12.0968 
 134   2.0000      -0.443073       -12.0566 
 135   2.0000      -0.440738       -11.9931 
 136   2.0000      -0.439244       -11.9524 
 137   2.0000      -0.437584       -11.9073 
 138   2.0000      -0.428098       -11.6491 
 139   2.0000      -0.419909       -11.4263 
 140   2.0000      -0.419343       -11.4109 
 141   2.0000      -0.411769       -11.2048 
 142   2.0000      -0.394454       -10.7336 
 143   2.0000      -0.378102       -10.2887 
 144   2.0000      -0.372531       -10.1371 
 145   2.0000      -0.371842       -10.1183 
 146   2.0000      -0.369131       -10.0446 
 147   2.0000      -0.365849        -9.9552 
 148   2.0000      -0.362719        -9.8701 
 149   2.0000      -0.352502        -9.5921 
 150   2.0000      -0.350594        -9.5402 
 151   2.0000      -0.343742        -9.3537 
 152   2.0000      -0.340463        -9.2645 
 153   2.0000      -0.339125        -9.2281 
 154   2.0000      -0.312024        -8.4906 
 155   2.0000      -0.306932        -8.3521 
 156   2.0000      -0.296150        -8.0587 
 157   2.0000      -0.285948        -7.7810 
 158   0.0000      -0.047279        -1.2865 
 159   0.0000      -0.029296        -0.7972 
 160   0.0000      -0.005121        -0.1394 
 161   0.0000       0.009330         0.2539 
 162   0.0000       0.025085         0.6826 
 163   0.0000       0.044890         1.2215 
 164   0.0000       0.046320         1.2604 
 165   0.0000       0.056161         1.5282 
 166   0.0000       0.064550         1.7565 
 167   0.0000       0.070235         1.9112 
 168   0.0000       0.079944         2.1754 
 169   0.0000       0.089835         2.4445 
 170   0.0000       0.098321         2.6755 
 171   0.0000       0.100198         2.7265 
 172   0.0000       0.108604         2.9553 
 173   0.0000       0.112627         3.0647 
 174   0.0000       0.116637         3.1739 
 175   0.0000       0.123372         3.3571 
 176   0.0000       0.129395         3.5210 
 177   0.0000       0.133025         3.6198 
 178   0.0000       0.137160         3.7323 
 179   0.0000       0.139000         3.7824 
 180   0.0000       0.147568         4.0155 
 181   0.0000       0.148958         4.0534 
 182   0.0000       0.153469         4.1761 
 183   0.0000       0.154820         4.2129 
 184   0.0000       0.160430         4.3655 
 185   0.0000       0.161692         4.3999 
 186   0.0000       0.166318         4.5257 
 187   0.0000       0.168415         4.5828 
 188   0.0000       0.172093         4.6829 
 189   0.0000       0.174255         4.7417 
 190   0.0000       0.176079         4.7913 
 191   0.0000       0.181961         4.9514 
 192   0.0000       0.182408         4.9636 
 193   0.0000       0.186174         5.0660 
 194   0.0000       0.188171         5.1204 
 195   0.0000       0.189982         5.1697 
 196   0.0000       0.197356         5.3703 
 197   0.0000       0.199134         5.4187 
 198   0.0000       0.202092         5.4992 
 199   0.0000       0.205037         5.5794 
 200   0.0000       0.205964         5.6046 
 201   0.0000       0.208943         5.6856 
 202   0.0000       0.214911         5.8480 
 203   0.0000       0.220328         5.9954 
 204   0.0000       0.224806         6.1173 
 205   0.0000       0.228591         6.2203 
 206   0.0000       0.231851         6.3090 
 207   0.0000       0.233759         6.3609 
 208   0.0000       0.235085         6.3970 
 209   0.0000       0.237384         6.4595 
 210   0.0000       0.241070         6.5599 
 211   0.0000       0.244359         6.6493 
 212   0.0000       0.252835         6.8800 
 213   0.0000       0.254035         6.9126 
 214   0.0000       0.261113         7.1052 
 215   0.0000       0.262170         7.1340 
 216   0.0000       0.265377         7.2213 
 217   0.0000       0.268282         7.3003 
 218   0.0000       0.270083         7.3493 
 219   0.0000       0.271423         7.3858 
 220   0.0000       0.272093         7.4040 
 221   0.0000       0.274837         7.4787 
 222   0.0000       0.278528         7.5791 
 223   0.0000       0.282759         7.6943 
 224   0.0000       0.283937         7.7263 
 225   0.0000       0.285978         7.7819 
 226   0.0000       0.287542         7.8244 
 227   0.0000       0.288834         7.8596 
 228   0.0000       0.290926         7.9165 
 229   0.0000       0.292664         7.9638 
 230   0.0000       0.294576         8.0158 
 231   0.0000       0.295536         8.0420 
 232   0.0000       0.299674         8.1545 
 233   0.0000       0.301160         8.1950 
 234   0.0000       0.304071         8.2742 
 235   0.0000       0.305322         8.3082 
 236   0.0000       0.308325         8.3900 
 237   0.0000       0.311023         8.4634 
 238   0.0000       0.311548         8.4777 
 239   0.0000       0.314862         8.5678 
 240   0.0000       0.316786         8.6202 
 241   0.0000       0.318640         8.6706 
 242   0.0000       0.321992         8.7618 
 243   0.0000       0.324855         8.8398 
 244   0.0000       0.326668         8.8891 
 245   0.0000       0.328645         8.9429 
 246   0.0000       0.329952         8.9784 
 247   0.0000       0.335234         9.1222 
 248   0.0000       0.335297         9.1239 
 249   0.0000       0.338739         9.2176 
 250   0.0000       0.340670         9.2701 
 251   0.0000       0.341813         9.3012 
 252   0.0000       0.343154         9.3377 
 253   0.0000       0.346946         9.4409 
 254   0.0000       0.348690         9.4883 
 255   0.0000       0.349615         9.5135 
 256   0.0000       0.352988         9.6053 
 257   0.0000       0.354225         9.6390 
 258   0.0000       0.355571         9.6756 
 259   0.0000       0.357757         9.7351 
 260   0.0000       0.361866         9.8469 
 261   0.0000       0.362953         9.8764 
 262   0.0000       0.371140        10.0992 
 263   0.0000       0.374552        10.1921 
 264   0.0000       0.375629        10.2214 
 265   0.0000       0.377988        10.2856 
 266   0.0000       0.379418        10.3245 
 267   0.0000       0.380097        10.3430 
 268   0.0000       0.382656        10.4126 
 269   0.0000       0.384445        10.4613 
 270   0.0000       0.385590        10.4924 
 271   0.0000       0.387438        10.5427 
 272   0.0000       0.391022        10.6402 
 273   0.0000       0.392426        10.6785 
 274   0.0000       0.394151        10.7254 
 275   0.0000       0.397787        10.8243 
 276   0.0000       0.399451        10.8696 
 277   0.0000       0.401689        10.9305 
 278   0.0000       0.403973        10.9927 
 279   0.0000       0.405085        11.0229 
 280   0.0000       0.406960        11.0740 
 281   0.0000       0.410256        11.1636 
 282   0.0000       0.410979        11.1833 
 283   0.0000       0.414456        11.2779 
 284   0.0000       0.416250        11.3267 
 285   0.0000       0.417089        11.3496 
 286   0.0000       0.421103        11.4588 
 287   0.0000       0.424342        11.5469 
 288   0.0000       0.428262        11.6536 
 289   0.0000       0.432421        11.7668 
 290   0.0000       0.433536        11.7971 
 291   0.0000       0.435040        11.8380 
 292   0.0000       0.438326        11.9275 
 293   0.0000       0.438765        11.9394 
 294   0.0000       0.442771        12.0484 
 295   0.0000       0.443937        12.0801 
 296   0.0000       0.447916        12.1884 
 297   0.0000       0.449685        12.2366 
 298   0.0000       0.449887        12.2421 
 299   0.0000       0.453271        12.3341 
 300   0.0000       0.454769        12.3749 
 301   0.0000       0.457479        12.4486 
 302   0.0000       0.460144        12.5212 
 303   0.0000       0.462006        12.5718 
 304   0.0000       0.463359        12.6086 
 305   0.0000       0.465941        12.6789 
 306   0.0000       0.467764        12.7285 
 307   0.0000       0.468718        12.7545 
 308   0.0000       0.471029        12.8173 
 309   0.0000       0.473826        12.8935 
 310   0.0000       0.475549        12.9404 
 311   0.0000       0.477881        13.0038 
 312   0.0000       0.479253        13.0411 
 313   0.0000       0.480884        13.0855 
 314   0.0000       0.482263        13.1230 
 315   0.0000       0.485345        13.2069 
 316   0.0000       0.489095        13.3089 
 317   0.0000       0.491747        13.3811 
 318   0.0000       0.493623        13.4322 
 319   0.0000       0.496819        13.5191 
 320   0.0000       0.498331        13.5603 
 321   0.0000       0.499161        13.5829 
 322   0.0000       0.501133        13.6365 
 323   0.0000       0.502534        13.6746 
 324   0.0000       0.504830        13.7371 
 325   0.0000       0.506356        13.7787 
 326   0.0000       0.507580        13.8120 
 327   0.0000       0.510787        13.8992 
 328   0.0000       0.511601        13.9214 
 329   0.0000       0.514807        14.0086 
 330   0.0000       0.516903        14.0656 
 331   0.0000       0.520118        14.1531 
 332   0.0000       0.524387        14.2693 
 333   0.0000       0.525506        14.2997 
 334   0.0000       0.527287        14.3482 
 335   0.0000       0.533433        14.5155 
 336   0.0000       0.535221        14.5641 
 337   0.0000       0.536118        14.5885 
 338   0.0000       0.540327        14.7030 
 339   0.0000       0.545041        14.8313 
 340   0.0000       0.547195        14.8899 
 341   0.0000       0.549460        14.9516 
 342   0.0000       0.549756        14.9596 
 343   0.0000       0.551267        15.0007 
 344   0.0000       0.555741        15.1225 
 345   0.0000       0.556478        15.1425 
 346   0.0000       0.560091        15.2409 
 347   0.0000       0.562149        15.2968 
 348   0.0000       0.564160        15.3516 
 349   0.0000       0.569071        15.4852 
 350   0.0000       0.569323        15.4921 
 351   0.0000       0.571616        15.5545 
 352   0.0000       0.573075        15.5942 
 353   0.0000       0.575809        15.6686 
 354   0.0000       0.577320        15.7097 
 355   0.0000       0.579638        15.7728 
 356   0.0000       0.581650        15.8275 
 357   0.0000       0.584500        15.9050 
 358   0.0000       0.585463        15.9313 
 359   0.0000       0.588606        16.0168 
 360   0.0000       0.591894        16.1062 
 361   0.0000       0.596379        16.2283 
 362   0.0000       0.598079        16.2745 
 363   0.0000       0.600149        16.3309 
 364   0.0000       0.603625        16.4255 
 365   0.0000       0.604584        16.4516 
 366   0.0000       0.607199        16.5227 
 367   0.0000       0.610897        16.6234 
 368   0.0000       0.615280        16.7426 
 369   0.0000       0.619297        16.8519 
 370   0.0000       0.621178        16.9031 
 371   0.0000       0.625129        17.0106 
 372   0.0000       0.632229        17.2038 
 373   0.0000       0.638653        17.3786 
 374   0.0000       0.641363        17.4524 
 375   0.0000       0.644401        17.5350 
 376   0.0000       0.646205        17.5841 
 377   0.0000       0.648849        17.6561 
 378   0.0000       0.653789        17.7905 
 379   0.0000       0.657140        17.8817 
 380   0.0000       0.663347        18.0506 
 381   0.0000       0.666521        18.1370 
 382   0.0000       0.669470        18.2172 
 383   0.0000       0.672882        18.3100 
 384   0.0000       0.677151        18.4262 
 385   0.0000       0.680507        18.5175 
 386   0.0000       0.682350        18.5677 
 387   0.0000       0.684106        18.6155 
 388   0.0000       0.686594        18.6832 
 389   0.0000       0.687902        18.7188 
 390   0.0000       0.691783        18.8244 
 391   0.0000       0.692274        18.8377 
 392   0.0000       0.696339        18.9484 
 393   0.0000       0.699152        19.0249 
 394   0.0000       0.699911        19.0456 
 395   0.0000       0.706310        19.2197 
 396   0.0000       0.707746        19.2588 
 397   0.0000       0.711853        19.3705 
 398   0.0000       0.713426        19.4133 
 399   0.0000       0.715869        19.4798 
 400   0.0000       0.721455        19.6318 
 401   0.0000       0.722567        19.6620 
 402   0.0000       0.723646        19.6914 
 403   0.0000       0.729393        19.8478 
 404   0.0000       0.730084        19.8666 
 405   0.0000       0.731760        19.9122 
 406   0.0000       0.734173        19.9779 
 407   0.0000       0.737390        20.0654 
 408   0.0000       0.738789        20.1035 
 409   0.0000       0.739449        20.1214 
 410   0.0000       0.740862        20.1599 
 411   0.0000       0.744082        20.2475 
 412   0.0000       0.745711        20.2918 
 413   0.0000       0.750976        20.4351 
 414   0.0000       0.752455        20.4753 
 415   0.0000       0.754223        20.5234 
 416   0.0000       0.756191        20.5770 
 417   0.0000       0.761628        20.7249 
 418   0.0000       0.764163        20.7939 
 419   0.0000       0.766970        20.8703 
 420   0.0000       0.770566        20.9682 
 421   0.0000       0.773457        21.0468 
 422   0.0000       0.774673        21.0799 
 423   0.0000       0.777016        21.1437 
 424   0.0000       0.779746        21.2180 
 425   0.0000       0.781291        21.2600 
 426   0.0000       0.785399        21.3718 
 427   0.0000       0.788120        21.4458 
 428   0.0000       0.788725        21.4623 
 429   0.0000       0.792700        21.5705 
 430   0.0000       0.794394        21.6166 
 431   0.0000       0.799479        21.7549 
 432   0.0000       0.801718        21.8158 
 433   0.0000       0.805457        21.9176 
 434   0.0000       0.805789        21.9266 
 435   0.0000       0.808097        21.9894 
 436   0.0000       0.812310        22.1041 
 437   0.0000       0.815407        22.1884 
 438   0.0000       0.816796        22.2262 
 439   0.0000       0.821427        22.3522 
 440   0.0000       0.822561        22.3830 
 441   0.0000       0.823840        22.4178 
 442   0.0000       0.825836        22.4721 
 443   0.0000       0.827836        22.5266 
 444   0.0000       0.830131        22.5890 
 445   0.0000       0.833381        22.6774 
 446   0.0000       0.834645        22.7118 
 447   0.0000       0.838190        22.8083 
 448   0.0000       0.843805        22.9611 
 449   0.0000       0.847303        23.0563 
 450   0.0000       0.851135        23.1606 
 451   0.0000       0.854826        23.2610 
 452   0.0000       0.856368        23.3030 
 453   0.0000       0.860073        23.4038 
 454   0.0000       0.862813        23.4783 
 455   0.0000       0.867276        23.5998 
 456   0.0000       0.869617        23.6635 
 457   0.0000       0.871392        23.7118 
 458   0.0000       0.877785        23.8858 
 459   0.0000       0.881225        23.9793 
 460   0.0000       0.883415        24.0389 
 461   0.0000       0.884847        24.0779 
 462   0.0000       0.889046        24.1922 
 463   0.0000       0.889757        24.2115 
 464   0.0000       0.896721        24.4010 
 465   0.0000       0.899443        24.4751 
 466   0.0000       0.903869        24.5955 
 467   0.0000       0.906839        24.6764 
 468   0.0000       0.910889        24.7866 
 469   0.0000       0.915974        24.9249 
 470   0.0000       0.918293        24.9880 
 471   0.0000       0.919407        25.0183 
 472   0.0000       0.922062        25.0906 
 473   0.0000       0.926949        25.2236 
 474   0.0000       0.930954        25.3325 
 475   0.0000       0.934023        25.4161 
 476   0.0000       0.937559        25.5123 
 477   0.0000       0.938062        25.5260 
 478   0.0000       0.943085        25.6627 
 479   0.0000       0.944725        25.7073 
 480   0.0000       0.945978        25.7414 
 481   0.0000       0.949135        25.8273 
 482   0.0000       0.954357        25.9694 
 483   0.0000       0.959357        26.1054 
 484   0.0000       0.963375        26.2148 
 485   0.0000       0.969463        26.3804 
 486   0.0000       0.970599        26.4113 
 487   0.0000       0.974028        26.5047 
 488   0.0000       0.976412        26.5695 
 489   0.0000       0.979090        26.6424 
 490   0.0000       0.982392        26.7323 
 491   0.0000       0.986027        26.8312 
 492   0.0000       0.993790        27.0424 
 493   0.0000       0.995549        27.0903 
 494   0.0000       0.999461        27.1967 
 495   0.0000       0.999759        27.2048 
 496   0.0000       1.007136        27.4056 
 497   0.0000       1.008590        27.4451 
 498   0.0000       1.011820        27.5330 
 499   0.0000       1.014310        27.6008 
 500   0.0000       1.016384        27.6572 
 501   0.0000       1.020584        27.7715 
 502   0.0000       1.024413        27.8757 
 503   0.0000       1.030294        28.0357 
 504   0.0000       1.035779        28.1850 
 505   0.0000       1.039169        28.2772 
 506   0.0000       1.039575        28.2883 
 507   0.0000       1.050364        28.5819 
 508   0.0000       1.052951        28.6522 
 509   0.0000       1.054206        28.6864 
 510   0.0000       1.056219        28.7412 
 511   0.0000       1.062169        28.9031 
 512   0.0000       1.068338        29.0710 
 513   0.0000       1.074069        29.2269 
 514   0.0000       1.078426        29.3455 
 515   0.0000       1.083273        29.4774 
 516   0.0000       1.084858        29.5205 
 517   0.0000       1.090923        29.6855 
 518   0.0000       1.094620        29.7861 
 519   0.0000       1.099886        29.9294 
[...]
 281   9.216     134.5   0.017174   0.015805  26.807924  26.245313     0.03 (  95-> 131)    0.02 (  82-> 114)    0.02 (  91-> 117)
 282   9.234     134.3   0.013213   0.011994   7.386481   6.754637     0.05 (  98-> 141)    0.05 (  95-> 110)    0.04 (  98-> 135)
 283   9.238     134.2   0.005349   0.005129   9.198769   9.018789     0.19 (  93-> 108)    0.10 (  91-> 108)    0.10 (  90-> 108)
 284   9.251     134.0   0.015683   0.013736   4.334806   4.346184     0.07 (  95-> 131)    0.04 (  95-> 132)    0.03 (  87-> 111)
 285   9.254     134.0   0.020104   0.018436  -15.037592  -13.740634     0.14 (  95-> 110)    0.08 (  86-> 110)    0.03 (  93-> 110)
 286   9.260     133.9   0.011149   0.010864  -0.406191  -0.362413     0.05 (  93-> 108)    0.03 (  89-> 108)    0.03 (  78-> 105)
 287   9.269     133.8   0.065656   0.059565  -10.080146  -10.677855     0.18 ( 102-> 117)    0.09 (  95-> 110)    0.05 (  91-> 117)
 288   9.270     133.7   0.018332   0.017147  -8.611387  -8.860279     0.05 ( 102-> 117)    0.04 ( 103-> 120)    0.03 ( 103-> 116)
 289   9.282     133.6   0.026471   0.023623  -35.062075  -32.181730     0.08 ( 103-> 120)    0.05 ( 103-> 118)    0.05 ( 103-> 115)
 290   9.289     133.5   0.031093   0.028918  -7.257862  -7.095138     0.06 (  73-> 109)    0.04 (  95-> 118)    0.03 (  73-> 111)
 291   9.298     133.3   0.015994   0.015502   3.533972   1.784098     0.22 ( 102-> 117)    0.06 ( 102-> 148)    0.03 ( 100-> 137)
 292   9.305     133.2   0.001294   0.000995   2.985153   2.608911     0.06 ( 102-> 117)    0.04 (  88-> 108)    0.02 ( 100-> 139)
 293   9.307     133.2   0.015329   0.012745  -3.476304  -3.543607     0.07 ( 100-> 139)    0.03 ( 100-> 137)    0.03 ( 101-> 121)
 294   9.315     133.1   0.008567   0.007644  -10.001466  -8.183021     0.10 ( 103-> 120)    0.09 ( 102-> 117)    0.05 ( 103-> 118)
 295   9.319     133.0   0.006561   0.005465  -1.900879  -1.868235     0.20 (  95-> 110)    0.09 (  99-> 110)    0.05 (  91-> 110)
 296   9.326     132.9   0.013673   0.012681  14.690562  14.658105     0.06 ( 101-> 116)    0.02 (  88-> 111)    0.02 (  88-> 108)
 297   9.328     132.9   0.009359   0.008632  -13.732590  -12.330224     0.04 ( 101-> 116)    0.02 (  95-> 118)    0.02 (  67-> 104)
 298   9.334     132.8   0.018333   0.016513  -3.630045  -2.522617     0.03 ( 101-> 121)    0.03 (  97-> 124)    0.03 ( 101-> 126)
 299   9.343     132.7   0.001391   0.001144  -5.865644  -5.982494     0.07 ( 101-> 116)    0.06 ( 100-> 114)    0.03 (  66-> 105)
 300   9.349     132.6   0.005049   0.005199  -4.188910  -4.277186     0.08 (  88-> 108)    0.06 (  92-> 117)    0.05 ( 100-> 117)
 301   9.353     132.6   0.005224   0.003781  -7.248332  -5.724053     0.10 ( 102-> 148)    0.08 ( 100-> 114)    0.05 ( 102-> 117)
 302   9.361     132.4   0.005757   0.005324  -8.240089  -8.323508     0.12 (  92-> 117)    0.12 ( 100-> 117)    0.09 ( 102-> 117)
 303   9.367     132.4   0.021885   0.019673  25.563125  25.383912     0.29 ( 100-> 114)    0.04 (  88-> 108)    0.04 ( 100-> 115)
 304   9.369     132.3   0.009019   0.007493  -19.168869  -16.966508     0.08 (  86-> 112)    0.04 (  91-> 112)    0.03 (  86-> 113)
 305   9.377     132.2   0.006096   0.005652  -13.975546  -12.338766     0.07 (  67-> 110)    0.04 ( 100-> 114)    0.02 (  69-> 112)
 306   9.382     132.1   0.001828   0.001424  -0.222177  -1.618838     0.10 ( 101-> 116)    0.03 (  67-> 110)    0.02 (  86-> 113)
 307   9.389     132.0   0.006692   0.005407   7.959434   7.711613     0.03 (  73-> 111)    0.02 ( 101-> 116)    0.02 (  73-> 109)
 308   9.400     131.9   0.001171   0.001170  -5.056085  -3.502026     0.18 (  87-> 107)    0.07 (  98-> 109)    0.03 (  96-> 111)
 309   9.403     131.9   0.001387   0.001315  -6.193117  -7.343874     0.06 (  99-> 110)    0.05 (  67-> 110)    0.03 ( 100-> 114)
 310   9.416     131.7   0.004608   0.003784  -4.330126  -2.876555     0.36 (  98-> 109)    0.17 (  98-> 111)    0.03 (  96-> 111)
 311   9.421     131.6   0.004161   0.003750  22.157896  20.710635     0.07 ( 102-> 145)    0.06 (  99-> 125)    0.05 (  99-> 126)
 312   9.425     131.5   0.008734   0.006356  -8.342782  -6.619075     0.06 ( 100-> 141)    0.03 (  98-> 111)    0.03 ( 101-> 129)
 313   9.428     131.5   0.001132   0.000870   9.341718   7.636502     0.43 (  99-> 110)    0.03 (  97-> 110)    0.03 (  95-> 110)
 314   9.432     131.4   0.002448   0.002231  -8.712593  -7.176157     0.19 (  99-> 110)    0.02 (  97-> 110)    0.02 (  58-> 106)
 315   9.437     131.4   0.001487   0.001590  -3.661402  -3.843971     0.03 (  70-> 104)    0.02 (  64-> 105)    0.02 (  74-> 108)
 316   9.445     131.3   0.003036   0.002467   8.137581   8.029357     0.04 (  97-> 121)    0.03 (  99-> 125)    0.03 ( 100-> 143)
 317   9.448     131.2   0.002288   0.002018   2.525748   2.875276     0.08 (  99-> 125)    0.05 ( 103-> 127)    0.04 ( 102-> 146)
 318   9.467     131.0   0.021802   0.020364  29.970129  28.706633     0.05 (  88-> 108)    0.02 (  71-> 107)    0.02 (  67-> 104)
 319   9.478     130.8   0.002968   0.002588   4.288231   3.402741     0.06 ( 101-> 116)    0.04 (  96-> 109)    0.02 (  98-> 111)
 320   9.488     130.7   0.003498   0.002685  -6.166104  -6.140860     0.04 (  97-> 114)    0.04 (  86-> 110)    0.04 (  89-> 114)
 321   9.492     130.6   0.013335   0.010527  -24.471548  -21.136118     0.09 (  86-> 110)    0.05 (  71-> 110)    0.04 (  69-> 110)
 322   9.511     130.4   0.011341   0.009831  -10.664519  -9.571582     0.03 (  66-> 107)    0.03 (  57-> 104)    0.02 (  70-> 104)
 323   9.518     130.3   0.011185   0.009257  -13.387352  -13.151986     0.03 ( 103-> 132)    0.03 (  97-> 114)    0.03 ( 102-> 146)
 324   9.530     130.1   0.009698   0.009901  14.771712  14.440475     0.05 (  97-> 111)    0.04 (  97-> 109)    0.04 (  96-> 109)
 325   9.539     130.0   0.025700   0.023354  -34.133478  -34.406900     0.05 (  74-> 108)    0.03 (  76-> 108)    0.03 (  77-> 108)
 326   9.546     129.9   0.008888   0.007697  18.163599  16.847856     0.06 ( 102-> 120)    0.05 ( 100-> 144)    0.03 ( 102-> 116)
 327   9.548     129.9   0.017031   0.015696  -9.566100  -8.679973     0.09 ( 102-> 120)    0.05 ( 102-> 116)    0.04 ( 102-> 118)
 328   9.552     129.8   0.010331   0.009877   3.262500   3.021457     0.04 (  65-> 106)    0.04 ( 102-> 120)    0.02 ( 102-> 115)
 329   9.562     129.7   0.000872   0.000884  -1.362012  -1.261930     0.04 (  58-> 106)    0.03 (  97-> 111)    0.03 (  97-> 109)
 330   9.573     129.5   0.000651   0.000515  -6.369668  -5.791133     0.02 (  88-> 114)    0.02 (  86-> 115)    0.02 (  68-> 104)
 331   9.578     129.4   0.023433   0.021604   1.828493   1.291762     0.12 ( 102-> 146)    0.10 ( 102-> 145)    0.06 (  99-> 125)
 332   9.583     129.4   0.002249   0.002226   5.773719   5.631415     0.05 (  97-> 109)    0.03 (  97-> 111)    0.03 (  84-> 114)
 333   9.594     129.2   0.031561   0.029810   6.629241   6.344846     0.04 ( 101-> 123)    0.04 (  94-> 111)    0.02 ( 101-> 121)
 334   9.596     129.2   0.002822   0.003247  -1.234889  -1.076884     0.05 (  60-> 107)    0.05 (  80-> 112)    0.05 (  60-> 104)
 335   9.609     129.0   0.003207   0.002662  13.003744  13.890193     0.07 (  90-> 108)    0.05 (  87-> 114)    0.03 (  89-> 108)
 336   9.613     129.0   0.010647   0.009835  -11.036895  -11.154434     0.08 ( 100-> 143)    0.05 ( 101-> 123)    0.04 (  94-> 109)
 337   9.629     128.8   0.026875   0.024128  -26.751991  -23.983892     0.03 (  94-> 109)    0.03 (  97-> 114)    0.02 (  91-> 111)
 338   9.638     128.6   0.006134   0.004928  -1.398180  -1.364706     0.06 (  94-> 111)    0.04 (  91-> 109)    0.02 (  94-> 109)
 339   9.643     128.6   0.001393   0.001338   9.251490   9.630415     0.03 ( 101-> 123)    0.03 ( 100-> 143)    0.02 (  99-> 138)
 340   9.652     128.4   0.004081   0.003673   8.235556   7.858294     0.04 (  81-> 105)    0.04 (  79-> 105)    0.03 ( 101-> 123)
 341   9.661     128.3   0.029865   0.024944  -28.532035  -26.356992     0.02 (  80-> 107)    0.02 (  79-> 105)    0.02 (  95-> 120)
 342   9.663     128.3   0.009857   0.007997  -8.964787  -7.003173     0.12 ( 103-> 121)    0.08 ( 103-> 122)    0.05 ( 103-> 126)
 343   9.669     128.2   0.009159   0.007384  -26.153469  -22.973620     0.10 (  96-> 117)    0.04 (  94-> 117)    0.03 (  80-> 105)
 344   9.679     128.1   0.000492   0.000205   2.681106   1.750599     0.12 (  96-> 117)    0.05 (  94-> 117)    0.02 (  85-> 117)
 345   9.681     128.1   0.000874   0.000896  -0.716426   0.142819     0.03 (  96-> 117)    0.03 (  96-> 109)    0.03 (  89-> 108)
 346   9.691     127.9   0.007661   0.006273  -10.788348  -10.292274     0.07 (  96-> 109)    0.03 (  99-> 127)    0.03 (  96-> 111)
 347   9.697     127.9   0.014087   0.012742   2.679543   2.795540     0.04 (  96-> 109)    0.02 (  98-> 143)    0.02 (  93-> 115)
 348   9.703     127.8   0.006547   0.005879  13.700652  12.740672     0.05 (  96-> 109)    0.03 (  90-> 108)    0.03 (  89-> 108)
 349   9.709     127.7   0.002084   0.001745  -6.052787  -8.171247     0.04 (  88-> 114)    0.04 (  98-> 139)    0.03 (  96-> 143)
 350   9.711     127.7   0.008206   0.006790   6.292846   5.507646     0.07 (  99-> 127)    0.04 ( 103-> 140)    0.03 ( 103-> 146)
 351   9.716     127.6   0.001231   0.001098   1.488230   2.186127     0.04 ( 101-> 118)    0.03 (  98-> 139)    0.03 (  96-> 117)
 352   9.720     127.6   0.009040   0.007874  -4.206981  -3.874392     0.04 (  75-> 104)    0.03 (  89-> 114)    0.03 (  91-> 111)
 353   9.726     127.5   0.011257   0.010264  -9.171725  -8.867939     0.03 (  86-> 106)    0.03 (  88-> 114)    0.03 (  96-> 117)
 354   9.731     127.4   0.002742   0.002074   2.745616   2.271452     0.29 ( 101-> 118)    0.06 ( 101-> 120)    0.04 ( 101-> 116)
 355   9.742     127.3   0.010120   0.008972  17.585590  16.477399     0.04 (  98-> 143)    0.04 (  78-> 105)    0.03 (  61-> 104)
 356   9.749     127.2   0.004023   0.003859  -3.168512  -3.033188     0.06 (  98-> 139)    0.05 (  98-> 143)    0.03 (  86-> 112)
 357   9.750     127.2   0.022667   0.020739  -10.096652  -10.579245     0.07 ( 101-> 118)    0.03 (  97-> 129)    0.03 (  97-> 126)
 358   9.752     127.1   0.000354   0.000383   1.459351   1.388001     0.05 (  98-> 111)    0.03 (  98-> 144)    0.03 (  98-> 120)
 359   9.758     127.1   0.010605   0.009149  -17.536477  -17.161335     0.04 (  75-> 104)    0.04 ( 101-> 118)    0.04 (  99-> 112)
 360   9.762     127.0   0.005689   0.005047  19.238059  18.112715     0.05 (  86-> 106)    0.03 (  91-> 113)    0.03 (  97-> 132)
 361   9.774     126.8   0.010095   0.009537  -25.363424  -25.227789     0.05 (  97-> 123)    0.03 (  86-> 113)    0.03 (  78-> 105)
 362   9.780     126.8   0.010656   0.008739  -12.895663  -11.994893     0.07 ( 103-> 131)    0.04 ( 103-> 138)    0.04 (  88-> 122)
 363   9.783     126.7   0.004641   0.003391  14.443268  12.164891     0.08 (  97-> 123)    0.05 (  97-> 133)    0.04 ( 101-> 123)
 364   9.790     126.6   0.016980   0.015362  -6.042938  -5.171384     0.02 (  92-> 109)    0.02 (  86-> 106)    0.01 (  95-> 132)
 365   9.796     126.6   0.009836   0.007548   5.423883   4.937006     0.02 (  92-> 109)    0.02 (  95-> 132)    0.02 (  93-> 122)
 366   9.803     126.5   0.002369   0.002347  17.269750  16.936627     0.02 (  86-> 106)    0.02 (  99-> 112)    0.02 (  84-> 111)
 367   9.806     126.4   0.004830   0.004250  -6.874300  -6.505754     0.08 (  86-> 106)    0.06 (  95-> 112)    0.03 (  78-> 105)
 368   9.810     126.4   0.004035   0.002816  -7.110709  -5.475428     0.04 ( 100-> 144)    0.04 (  92-> 121)    0.03 (  95-> 112)
 369   9.817     126.3   0.007078   0.005989   8.968627  10.077796     0.06 (  95-> 112)    0.06 (  98-> 117)    0.06 ( 100-> 144)
 370   9.825     126.2   0.003670   0.003208  10.330081   8.651872     0.03 (  61-> 104)    0.02 (  86-> 106)    0.02 (  79-> 105)
 371   9.828     126.2   0.000917   0.001022   1.969522   2.406577     0.04 (  93-> 116)    0.04 (  86-> 106)    0.03 (  64-> 106)
 372   9.845     125.9   0.004659   0.003830  -1.954657  -1.826132     0.04 (  92-> 109)    0.04 (  96-> 139)    0.04 (  98-> 144)
 373   9.847     125.9   0.001351   0.001109  -1.132767   0.088385     0.04 (  88-> 122)    0.03 (  88-> 117)    0.02 (  88-> 127)
 374   9.852     125.9   0.005987   0.005646  29.270263  27.202652     0.07 (  98-> 117)    0.06 (  96-> 139)    0.04 (  95-> 112)
 375   9.862     125.7   0.001469   0.001280  -6.756256  -4.907943     0.04 (  93-> 116)    0.03 ( 103-> 138)    0.02 (  99-> 112)
 376   9.867     125.7   0.024875   0.021194   6.119697   5.476277     0.02 (  74-> 104)    0.02 (  61-> 104)    0.02 (  97-> 133)
 377   9.869     125.6   0.003175   0.002006  -0.281640   0.098296     0.08 (  95-> 112)    0.02 (  70-> 104)    0.02 (  79-> 105)
 378   9.878     125.5   0.006334   0.005588  -2.672912  -1.619602     0.12 (  78-> 105)    0.03 (  98-> 117)    0.03 (  75-> 104)
 379   9.881     125.5   0.002800   0.002796   3.132128   2.915931     0.07 (  98-> 117)    0.06 (  99-> 112)    0.05 (  73-> 104)
 380   9.887     125.4   0.003121   0.002611  -0.408615   0.120040     0.05 (  80-> 105)    0.04 (  85-> 110)    0.03 (  98-> 117)
 381   9.891     125.3   0.001938   0.001527  -2.782114  -3.029469     0.05 (  99-> 112)    0.03 (  80-> 105)    0.02 (  73-> 104)
 382   9.899     125.3   0.020832   0.018184  -34.520420  -31.347064     0.13 ( 100-> 116)    0.03 ( 100-> 120)    0.02 (  92-> 109)
 383   9.902     125.2   0.011221   0.009800  -4.163160  -3.805269     0.11 ( 100-> 116)    0.10 (  98-> 117)    0.04 (  73-> 104)
 384   9.903     125.2   0.005209   0.005630  -18.274291  -18.373289     0.12 (  98-> 117)    0.04 (  78-> 105)    0.03 (  77-> 105)
 385   9.909     125.1   0.002865   0.002603  -3.346580  -3.331516     0.05 (  98-> 114)    0.03 ( 100-> 116)    0.03 (  98-> 120)
 386   9.915     125.0   0.000874   0.000898  -5.458853  -4.608592     0.03 (  92-> 121)    0.02 ( 103-> 121)    0.02 (  94-> 121)
 387   9.920     125.0   0.000391   0.000468  -8.116762  -8.536314     0.12 ( 100-> 116)    0.04 (  73-> 104)    0.02 ( 100-> 120)
 388   9.922     125.0   0.002133   0.001977  -4.397089  -4.466285     0.04 (  92-> 121)    0.04 ( 100-> 116)    0.03 (  80-> 105)
 389   9.935     124.8   0.000585   0.000465   0.068386   0.094815     0.30 (  93-> 110)    0.14 (  95-> 110)    0.11 (  89-> 110)
 390   9.943     124.7   0.003300   0.002858   3.645547   2.688242     0.04 (  75-> 105)    0.03 (  58-> 106)    0.03 (  57-> 105)
 391   9.946     124.7   0.007903   0.007130  -5.699663  -5.320496     0.04 (  84-> 107)    0.03 (  62-> 106)    0.02 ( 103-> 121)
 392   9.950     124.6   0.009532   0.007335  -9.907379  -7.363113     0.04 (  99-> 112)    0.04 ( 100-> 116)    0.02 ( 103-> 121)
 393   9.958     124.5   0.005058   0.004128  17.918879  16.089326     0.04 (  75-> 104)    0.04 (  73-> 104)    0.04 ( 100-> 116)
 394   9.963     124.4   0.000875   0.000942   2.435915   2.465681     0.07 (  73-> 104)    0.04 (  75-> 104)    0.03 (  95-> 113)
 395   9.967     124.4   0.006502   0.004819   1.577587   1.518708     0.04 (  99-> 112)    0.03 (  73-> 104)    0.02 ( 100-> 116)
 396   9.975     124.3   0.001021   0.000877   5.010468   4.873564     0.05 (  99-> 112)    0.04 (  80-> 108)    0.04 (  72-> 104)
 397   9.978     124.3   0.002643   0.001945   3.712909   3.143547     0.22 (  99-> 112)    0.11 (  99-> 113)    0.05 (  99-> 115)
 398   9.984     124.2   0.005072   0.004916  14.649790  14.491046     0.04 (  80-> 108)    0.03 (  73-> 104)    0.03 (  92-> 109)
 399   9.993     124.1   0.002273   0.002051  -6.109745  -5.814506     0.21 (  95-> 113)    0.09 (  93-> 110)    0.05 (  95-> 112)

sTD-DFT done

Total run time:       92.643 sec

           *** ORCA-CIS/TD-DFT FINISHED WITHOUT ERROR ***


-------------------------------------------------------------------------------
                          DFT DISPERSION CORRECTION                            
                                                                               
                              DFTD3 V3.1  Rev 1                                
                              USING zero damping                               
-------------------------------------------------------------------------------
The omegaB97X-D3 functional is recognized. Fit by Chai et al.
Active option DFTDOPT                   ...         3   

molecular C6(AA) [au] = 70780.378918 


            DFT-D V3
 parameters
 s6 scaling factor         :     1.0000 
 rs6 scaling factor        :     1.2810 
 s8 scaling factor         :     1.0000 
 rs8 scaling factor        :     1.0940 
 Damping factor alpha6     :    14.0000 
 Damping factor alpha8     :    16.0000 
 ad hoc parameters k1-k3   :    16.0000     1.3333    -4.0000 

 Edisp/kcal,au: -21.589412689941  -0.034404915431 
 E6   /kcal   : -10.778289762 
 E8   /kcal   : -10.811122927 
 % E8         :  50.076039968 

-------------------------   ----------------
Dispersion correction           -0.034404915
-------------------------   ----------------


-------------------------   --------------------
FINAL SINGLE POINT ENERGY     -2275.557398521928
-------------------------   --------------------


                            ***************************************
                            *     ORCA property calculations      *
                            ***************************************

                                    ---------------------
                                    Active property flags
                                    ---------------------
   (+) Dipole Moment
   (+) Quadrupole Moment


------------------------------------------------------------------------------
                       ORCA ELECTRIC PROPERTIES CALCULATION
------------------------------------------------------------------------------

Dipole Moment Calculation                       ... on
Quadrupole Moment Calculation                   ... on
Polarizability Calculation                      ... off
GBWName                                         ... total_job2.gbw
Electron density file                           ... total_job2.scfp.tmp

-------------
DIPOLE MOMENT
-------------
                                X             Y             Z
Electronic contribution:     14.42190     -13.15467     -16.26887
Nuclear contribution   :    -14.70604      13.48333      16.98949
                        -----------------------------------------
Total Dipole Moment    :     -0.28414       0.32866       0.72062
                        -----------------------------------------
Magnitude (a.u.)       :      0.84145
Magnitude (Debye)      :      2.13881


------------------------
QUADRUPOLE MOMENT (A.U.)
------------------------

                XX           YY           ZZ           XY           XZ           YZ
  NUC     37893.95565   2477.78582   3971.02253  -2026.79435    704.78530   2470.99967
  EL     -38042.93147  -2668.63684  -4159.74208   2025.84348   -697.02492  -2458.78225
  TOT      -148.97582   -190.85102   -188.71955     -0.95087      7.76038     12.21742

--------------------------------------------------------------------------
[[36055,1],5]: A high-performance Open MPI point-to-point messaging module
was unable to find any relevant network interfaces:

Module: OpenFabrics (openib)
  Host: cx1-136-10-1

Another transport will be used instead, although this may result in
lower performance.
--------------------------------------------------------------------------

Timings for individual modules:

Sum of individual times         ...      392.642 sec (=   6.544 min)
GTO integral calculation        ...       11.312 sec (=   0.189 min)   2.9 %
SCF iterations                  ...      283.054 sec (=   4.718 min)  72.1 %
CIS module                      ...       98.276 sec (=   1.638 min)  25.0 %



                             ****ORCA TERMINATED NORMALLY****
TOTAL RUN TIME: 0 days 0 hours 24 minutes 30 seconds 225 msec
