   44
Geometry Step: 1039
    C     -4.79736039      0.62461953     -2.68121362      4.11545790
    C     -4.05987663      0.29105469     -1.54819057      4.08023985
    C     -4.74024677     -0.06883701     -0.36922968      4.03016262
    C     -6.16343797     -0.06657600     -0.38185345      3.86737572
    C     -6.90900059      0.26235191     -1.52430158      4.16530874
    C     -6.20329680      0.60693788     -2.67420824      4.06760067
    C     -4.33845953     -0.44183314      0.97829468      4.04237829
    C     -5.54807640     -0.62628382      1.71208830      3.86851288
    N     -6.62723481     -0.41381972      0.87492631      5.17503915
    C     -5.57605422     -0.94936701      3.07666296      4.16069537
    C     -4.35177149     -1.07569451      3.72969186      4.07276899
    C     -3.14725316     -0.89869008      3.03781475      4.13612879
    C     -3.10141821     -0.59995855      1.66227737      3.97652887
    H     -2.21108186     -1.02097098      3.57784310      0.91541194
    H     -7.60048063     -0.46903931      1.14896595      0.78447248
    H     -4.32680335     -1.31776464      4.78826233      0.91699838
    H     -2.97444343      0.30658379     -1.58087510      0.89627994
    H     -7.99557068      0.25283048     -1.50859653      0.91845121
    H     -6.74625795      0.86806944     -3.57872640      0.92216639
    H     -4.27690677      0.90194537     -3.59382403      0.91959683
    S      2.83931903     -0.21108455     -1.25787943      6.03026282
    C      4.30057192      0.24036757     -0.35628016      3.81058596
    N      4.06404921      0.48536651      0.92541941      5.18370251
    N      2.75292914      0.34008411      1.28189398      5.18120236
    C      1.97134604     -0.01935000      0.27132118      3.83253760
    C      0.54730024     -0.23562888      0.39298583      3.83438311
    N     -0.23179655     -0.59961092     -0.61683848      5.18254705
    N     -1.54481448     -0.74321072     -0.26241567      5.18425588
    C     -1.79093654     -0.48757301      1.01360470      3.80763752
    S     -0.32360958     -0.04035651      1.91978144      6.03996243
    C      8.21354573      0.52387075     -2.09644739      4.31792390
    C      8.00946022      0.79268034     -0.73273862      3.64162590
    C      6.72971884      0.70033983     -0.16193410      4.27223285
    C      5.62961425      0.33287290     -0.96419771      3.94068538
    C      5.82276712      0.06166600     -2.33026725      4.24245903
    C      7.10887545      0.15868953     -2.88500535      3.64863620
    O      9.07281536      1.14525943      0.03101988      6.46345868
    O      7.27174715     -0.10730104     -4.20448680      6.46179407
    H      4.98634145     -0.22243949     -2.96108365      0.88896810
    H      8.79700568      1.30126405      0.94378226      0.64655723
    H      8.19772894     -0.00563096     -4.46015940      0.64751625
    H      6.57899570      0.90952584      0.89304824      0.89898637
    H     -6.51603799     -1.08469820      3.60416139      0.91488974
    H      9.20819530      0.59903909     -2.52479273      0.89561404
