   47
Geometry Step: 1382
    C      6.32302075     -1.27066841     -2.28365899      4.11503157
    C      5.43896463     -0.76570270     -1.33375447      4.08000429
    C      5.92588681      0.10176532     -0.33727662      4.03031834
    C      7.30913960      0.43653852     -0.34895493      3.86752719
    C      8.20352227     -0.07641990     -1.30085117      4.16568295
    C      7.68862242     -0.93633059     -2.26756968      4.06765789
    C      5.33243679      0.83103351      0.77298641      4.04265235
    C      6.39298509      1.58335045      1.36043178      3.86839794
    N      7.56942384      1.31925751      0.68468979      5.17524216
    C      6.20667173      2.45854892      2.44051085      4.16154730
    C      4.91203120      2.59553395      2.93708484      4.07338813
    C      3.84956067      1.87258299      2.38110490      4.13688156
    C      4.02406982      0.97022539      1.31375632      3.97579074
    H      2.85560704      1.99388294      2.80578385      0.91582030
    H      8.46966203      1.73354822      0.89267557      0.78467073
    H      4.72083795      3.26814871      3.76831349      0.91769486
    H      4.38971920     -1.04424842     -1.36416756      0.89537943
    H      9.25638960      0.19235243     -1.28527457      0.91868764
    H      8.35074001     -1.35362293     -3.02165105      0.92224890
    H      5.95222609     -1.94146699     -3.05377890      0.91902514
    S     -2.02808764      0.13058397      0.50633787      6.07252223
    C     -3.14749338     -1.07691279     -0.16380245      3.79968505
    N     -2.52718090     -2.14672617     -0.65751816      5.19339951
    N     -1.17059713     -2.09390272     -0.54717730      5.15002734
    C     -0.72665342     -0.98601293      0.03191332      3.84139420
    C      0.66892605     -0.68438318      0.26702925      3.83236790
    N      1.67430637     -1.48498936     -0.06099470      5.16476835
    N      2.90007878     -0.97519609      0.26359244      5.18377827
    C      2.86031854      0.21758851      0.83604523      3.80412323
    S      1.19317590      0.82193022      1.03955757      6.07260309
    S     -9.64971559     -2.47699499     -1.26322993      5.95950492
    C     -8.45837325     -1.36861625     -0.63813933      3.98079178
    C     -9.04567092     -0.22617360     -0.10632269      4.03122945
    C    -10.46593572     -0.23395371     -0.19819378      4.12589639
    C    -10.94002585     -1.37999420     -0.79756790      4.11110861
    C     -7.02782574     -1.26688416     -0.49887178      3.97552767
    C     -6.72289084     -0.05577466      0.12240065      4.03610250
    C     -7.98842387      0.71115552      0.42539493      4.10121229
    C     -5.33534836      0.14579580      0.30868139      4.14514191
    C     -4.57673964     -0.91809496     -0.17342984      4.00034442
    S     -5.59853459     -2.18844102     -0.86863190      5.95335438
    H     -4.89018828      1.02080630      0.77146156      0.89783643
    H    -11.11200345      0.56120360      0.15726731      0.90225157
    H     -8.10762996      0.90909815      1.49827127      0.91047143
    H     -8.01035265      1.68964567     -0.07112397      0.91046900
    H      7.03792882      3.01464575      2.86467259      0.91514279
    H    -11.97708080     -1.62771160     -0.98502153      0.89529586
