
                                 *****************
                                 * O   R   C   A *
                                 *****************

           --- An Ab Initio, DFT and Semiempirical electronic structure package ---

                  #######################################################
                  #                        -***-                        #
                  #  Department of molecular theory and spectroscopy    #
                  #              Directorship: Frank Neese              #
                  # Max Planck Institute for Chemical Energy Conversion #
                  #                  D-45470 Muelheim/Ruhr              #
                  #                       Germany                       #
                  #                                                     #
                  #                  All rights reserved                #
                  #                        -***-                        #
                  #######################################################


                         Program Version 4.0.0 -  RELEASE  -


 With contributions from (in alphabetic order):
   Daniel Aravena         : Magnetic Properties
   Michael Atanasov       : Ab Initio Ligand Field Theory
   Ute Becker             : Parallelization
   Martin Brehm           : Molecular dynamics
   Dmytro Bykov           : SCF Hessian
   Vijay G. Chilkuri      : MRCI spin determinant printing
   Dipayan Datta          : RHF DLPNO-CCSD density
   Achintya Kumar Dutta   : EOM-CC, STEOM-CC
   Dmitry Ganyushin       : Spin-Orbit,Spin-Spin,Magnetic field MRCI
   Yang Guo               : DLPNO-NEVPT2, CIM, IAO-localization
   Andreas Hansen         : Spin unrestricted coupled pair/coupled cluster methods
   Lee Huntington         : MR-EOM, pCC
   Robert Izsak           : Overlap fitted RIJCOSX, COSX-SCS-MP3, EOM
   Christian Kollmar      : KDIIS, OOCD, Brueckner-CCSD(T), CCSD density
   Simone Kossmann        : Meta GGA functionals, TD-DFT gradient, OOMP2, MP2 Hessian
   Martin Krupicka        : AUTO-CI
   Dagmar Lenk            : GEPOL surface
   Dimitrios Liakos       : Extrapolation schemes; parallel MDCI
   Dimitrios Manganas     : ROCIS; embedding schemes
   Dimitrios Pantazis     : SARC Basis sets
   Taras Petrenko         : DFT Hessian,TD-DFT gradient, ASA, ECA, R-Raman, ABS, FL, XAS/XES, NRVS
   Peter Pinski           : DLPNO-MP2
   Christoph Reimann      : Effective Core Potentials
   Marius Retegan         : Local ZFS, SOC
   Christoph Riplinger    : Optimizer, TS searches, QM/MM, DLPNO-CCSD(T), (RO)-DLPNO pert. Triples
   Tobias Risthaus        : Range-separated hybrids, TD-DFT gradient, RPA, STAB
   Michael Roemelt        : Restricted open shell CIS
   Masaaki Saitow         : Open-shell DLPNO
   Barbara Sandhoefer     : DKH picture change effects
   Kantharuban Sivalingam : CASSCF convergence, NEVPT2, FIC-MRCI
   Georgi Stoychev        : AutoAux
   Boris Wezisla          : Elementary symmetry handling
   Frank Wennmohs         : Technical directorship


 We gratefully acknowledge several colleagues who have allowed us to
 interface, adapt or use parts of their codes:
   Stefan Grimme, W. Hujo, H. Kruse,             : VdW corrections, initial TS optimization,
                  C. Bannwarth                     DFT functionals, gCP, sTDA/sTD-DF
   Ed Valeev                                     : LibInt (2-el integral package), F12 methods
   Garnet Chan, S. Sharma, J. Yang, R. Olivares  : DMRG
   Ulf Ekstrom                                   : XCFun DFT Library
   Mihaly Kallay                                 : mrcc  (arbitrary order and MRCC methods)
   Jiri Pittner, Ondrej Demel                    : Mk-CCSD
   Frank Weinhold                                : gennbo (NPA and NBO analysis)
   Christopher J. Cramer and Donald G. Truhlar   : smd solvation model


 Your calculation uses the libint2 library for the computation of 2-el integrals
 For citations please refer to: http://libint.valeyev.net

 This ORCA versions uses:
   CBLAS   interface :  Fast vector & matrix operations
   LAPACKE interface :  Fast linear algebra routines
   SCALAPACK package :  Parallel linear algebra routines


Your calculation utilizes the atom-pairwise dispersion correction
with the zero-damping scheme (D30)
Cite in your paper:
S.Grimme, J.Antony, S.Ehrlich and H.Krieg, J.Chem.Phys., 132, (2010), 154104 
   

XCFun DFT library Copyright 2009-2010 Ulf Ekstrom and contributors.
See http://admol.org/xcfun for more information. This is free soft-
ware; see the source code for copying conditions. There is ABSOLUTELY
NO WARRANTY; not even for MERCHANTABILITY or FITNESS FOR A PARTICULAR
PURPOSE. For details see the documentation. Scientific users of this 
library should cite U. Ekstrom, L. Visscher, R. Bast, A. J. Thorvald-
sen and K. Ruud; J.Chem.Theor.Comp. 2010, DOI: 10.1021/ct100117s
XCFun Version 0.99 
Your calculation utilizes the basis: def2-TZVP
   F. Weigend and R. Ahlrichs, Phys. Chem. Chem. Phys. 7, 3297 (2005).

Your calculation utilizes the auxiliary basis: def2/J
   F. Weigend, Phys. Chem. Chem. Phys. 8, 1057 (2006).

================================================================================
                                        WARNINGS
                       Please study these warnings very carefully!
================================================================================

Warning: TCutStore was < 0. Adjusted to Thresh (uncritical)
INFO   : Checking CIS options ...

WARNING: CIS/ROCIS methods need fully converged wavefunctions
  ===> : Setting SCFConvForced true
         You can overwrite this default with %scf ConvForced false 


INFO   : the flag for use of LIBINT has been found!

Your calculation utilizes the atom-pairwise dispersion correction
with the zero-damping scheme (D30)
Cite in your paper:
S.Grimme, J.Antony, S.Ehrlich and H.Krieg, J.Chem.Phys., 132, (2010), 154104 
   

XCFun DFT library Copyright 2009-2010 Ulf Ekstrom and contributors.
See http://admol.org/xcfun for more information. This is free soft-
ware; see the source code for copying conditions. There is ABSOLUTELY
NO WARRANTY; not even for MERCHANTABILITY or FITNESS FOR A PARTICULAR
PURPOSE. For details see the documentation. Scientific users of this 
library should cite U. Ekstrom, L. Visscher, R. Bast, A. J. Thorvald-
sen and K. Ruud; J.Chem.Theor.Comp. 2010, DOI: 10.1021/ct100117s
XCFun Version 0.99 
Your calculation utilizes the basis: def2-TZVP
   F. Weigend and R. Ahlrichs, Phys. Chem. Chem. Phys. 7, 3297 (2005).

Your calculation utilizes the auxiliary basis: def2/J
   F. Weigend, Phys. Chem. Chem. Phys. 8, 1057 (2006).

================================================================================
                                        WARNINGS
                       Please study these warnings very carefully!
================================================================================

INFO   : Checking CIS options ...

INFO   : the flag for use of LIBINT has been found!

================================================================================
                                       INPUT FILE
================================================================================
NAME = total.inp
|  1> # 
|  2> !wB97X-D3 def2-TZVP def2/J RIJCOSX Grid5 FinalGrid6 TightSCF
|  3> %pal 
|  4>  nprocs 24
|  5> end
|  6> %tddft
|  7>   Mode sTDDFT
|  8>   nroots 2
|  9>   Ethresh 10.0
| 10>   maxcore 5000
| 11>   triplets true
| 12> end
| 13> * xyz 0 1 
| 14> C 4.80250001 0.36041831 -2.89644062
| 15> C 4.15547654 0.12446876 -1.68615848
| 16> C 4.91606211 -0.26024941 -0.56537739
| 17> C 6.32764842 -0.37005322 -0.71204163
| 18> C 6.98135212 -0.13858731 -1.93200569
| 19> C 6.19617566 0.22492453 -3.02285322
| 20> C 4.62120081 -0.55851272 0.82795740
| 21> C 5.87935604 -0.80649121 1.45248032
| 22> N 6.88441898 -0.70793838 0.50889946
| 23> C 6.01389523 -1.08066793 2.82170480
| 24> C 4.85206285 -1.09294451 3.58996396
| 25> C 3.60046674 -0.86060408 3.00481325
| 26> C 3.44819910 -0.61056933 1.62810633
| 27> H 2.71184008 -0.89998681 3.62894207
| 28> H 7.87326681 -0.82651852 0.69211625
| 29> H 4.91195796 -1.29288838 4.65586539
| 30> H 3.07910967 0.24477576 -1.62031413
| 31> H 8.06043993 -0.23327465 -2.01817141
| 32> H 6.66695948 0.41360427 -3.98390661
| 33> H 4.21896800 0.65653788 -3.76372442
| 34> C -3.65262994 0.61455048 0.64731934
| 35> N -3.28148293 0.91690682 1.90280450
| 36> O -1.95296639 0.65787440 1.99792102
| 37> C -1.48421201 0.20635180 0.82012314
| 38> C -2.51973729 0.14948611 -0.08896398
| 39> C -0.06798335 -0.11864029 0.72496782
| 40> N 0.47837619 -0.57897036 -0.41058397
| 41> O 1.79872689 -0.77268611 -0.15287769
| 42> C 2.08491691 -0.43943398 1.11455142
| 43> C 0.92500008 -0.01950901 1.74090284
| 44> H 0.80299042 0.32790352 2.75624475
| 45> H -2.46487923 -0.15625074 -1.12277231
| 46> C -5.32080507 -1.46942223 -2.58698629
| 47> N -4.79255987 -0.83427647 -1.56247109
| 48> C -5.57965355 0.09553543 -0.89646193
| 49> C -6.95862474 0.30703470 -1.32551308
| 50> N -7.47017298 -0.38535982 -2.41960744
| 51> C -6.67082049 -1.23422436 -3.02718712
| 52> C -5.04058621 0.79563943 0.20143408
| 53> C -5.89872931 1.72413589 0.90326168
| 54> C -7.29510952 1.92409648 0.46445172
| 55> C -7.79234042 1.19955319 -0.65702688
| 56> N -8.03460885 2.79624171 1.14899868
| 57> S -6.93473530 3.47589274 2.47950694
| 58> N -5.48713495 2.44430357 1.94145915
| 59> H -7.06699007 -1.78229331 -3.89210752
| 60> H -4.69655105 -2.20813976 -3.10641299
| 61> H 6.98802250 -1.26576864 3.26537216
| 62> H -8.81607597 1.34402577 -0.99040254
| 63> *
| 64> $new_job
| 65> # 
| 66> !wB97X-D3 def2-TZVP def2/J RIJCOSX Grid5 FinalGrid6 TightSCF
| 67> %pal 
| 68>  nprocs 24
| 69> end
| 70> %elprop
| 71>    dipole     true
| 72>    quadrupole true
| 73> end
| 74> %tddft
| 75>   Mode sTDDFT
| 76>   nroots 2
| 77>   Ethresh 10.0
| 78>   maxcore 5000
| 79> end
| 80> * xyz 0 1 
| 81> C 4.80250001 0.36041831 -2.89644062
| 82> C 4.15547654 0.12446876 -1.68615848
| 83> C 4.91606211 -0.26024941 -0.56537739
| 84> C 6.32764842 -0.37005322 -0.71204163
| 85> C 6.98135212 -0.13858731 -1.93200569
| 86> C 6.19617566 0.22492453 -3.02285322
| 87> C 4.62120081 -0.55851272 0.82795740
| 88> C 5.87935604 -0.80649121 1.45248032
| 89> N 6.88441898 -0.70793838 0.50889946
| 90> C 6.01389523 -1.08066793 2.82170480
| 91> C 4.85206285 -1.09294451 3.58996396
| 92> C 3.60046674 -0.86060408 3.00481325
| 93> C 3.44819910 -0.61056933 1.62810633
| 94> H 2.71184008 -0.89998681 3.62894207
| 95> H 7.87326681 -0.82651852 0.69211625
| 96> H 4.91195796 -1.29288838 4.65586539
| 97> H 3.07910967 0.24477576 -1.62031413
| 98> H 8.06043993 -0.23327465 -2.01817141
| 99> H 6.66695948 0.41360427 -3.98390661
|100> H 4.21896800 0.65653788 -3.76372442
|101> C -3.65262994 0.61455048 0.64731934
|102> N -3.28148293 0.91690682 1.90280450
|103> O -1.95296639 0.65787440 1.99792102
|104> C -1.48421201 0.20635180 0.82012314
|105> C -2.51973729 0.14948611 -0.08896398
|106> C -0.06798335 -0.11864029 0.72496782
|107> N 0.47837619 -0.57897036 -0.41058397
|108> O 1.79872689 -0.77268611 -0.15287769
|109> C 2.08491691 -0.43943398 1.11455142
|110> C 0.92500008 -0.01950901 1.74090284
|111> H 0.80299042 0.32790352 2.75624475
|112> H -2.46487923 -0.15625074 -1.12277231
|113> C -5.32080507 -1.46942223 -2.58698629
|114> N -4.79255987 -0.83427647 -1.56247109
|115> C -5.57965355 0.09553543 -0.89646193
|116> C -6.95862474 0.30703470 -1.32551308
|117> N -7.47017298 -0.38535982 -2.41960744
|118> C -6.67082049 -1.23422436 -3.02718712
|119> C -5.04058621 0.79563943 0.20143408
|120> C -5.89872931 1.72413589 0.90326168
|121> C -7.29510952 1.92409648 0.46445172
|122> C -7.79234042 1.19955319 -0.65702688
|123> N -8.03460885 2.79624171 1.14899868
|124> S -6.93473530 3.47589274 2.47950694
|125> N -5.48713495 2.44430357 1.94145915
|126> H -7.06699007 -1.78229331 -3.89210752
|127> H -4.69655105 -2.20813976 -3.10641299
|128> H 6.98802250 -1.26576864 3.26537216
|129> H -8.81607597 1.34402577 -0.99040254
|130> *
|131> 
|132>                          ****END OF INPUT****
================================================================================


                 $$$$$$$$$$$$$$$$$$$$$$$$$$$$$$$$$$$$$$$$$$$$$$ 
                 $ THERE ARE  2 JOBS TO BE PROCESSED THIS RUN $
                 $$$$$$$$$$$$$$$$$$$$$$$$$$$$$$$$$$$$$$$$$$$$$$ 




                 $$$$$$$$$$$$$$$$  JOB NUMBER  1 $$$$$$$$$$$$$$


                       ****************************
                       * Single Point Calculation *
                       ****************************

---------------------------------
CARTESIAN COORDINATES (ANGSTROEM)
---------------------------------
  C      4.802500    0.360418   -2.896441
  C      4.155477    0.124469   -1.686158
  C      4.916062   -0.260249   -0.565377
  C      6.327648   -0.370053   -0.712042
  C      6.981352   -0.138587   -1.932006
  C      6.196176    0.224925   -3.022853
  C      4.621201   -0.558513    0.827957
  C      5.879356   -0.806491    1.452480
  N      6.884419   -0.707938    0.508899
  C      6.013895   -1.080668    2.821705
  C      4.852063   -1.092945    3.589964
  C      3.600467   -0.860604    3.004813
  C      3.448199   -0.610569    1.628106
  H      2.711840   -0.899987    3.628942
  H      7.873267   -0.826519    0.692116
  H      4.911958   -1.292888    4.655865
  H      3.079110    0.244776   -1.620314
  H      8.060440   -0.233275   -2.018171
  H      6.666959    0.413604   -3.983907
  H      4.218968    0.656538   -3.763724
  C     -3.652630    0.614550    0.647319
  N     -3.281483    0.916907    1.902805
  O     -1.952966    0.657874    1.997921
  C     -1.484212    0.206352    0.820123
  C     -2.519737    0.149486   -0.088964
  C     -0.067983   -0.118640    0.724968
  N      0.478376   -0.578970   -0.410584
  O      1.798727   -0.772686   -0.152878
  C      2.084917   -0.439434    1.114551
  C      0.925000   -0.019509    1.740903
  H      0.802990    0.327904    2.756245
  H     -2.464879   -0.156251   -1.122772
  C     -5.320805   -1.469422   -2.586986
  N     -4.792560   -0.834276   -1.562471
  C     -5.579654    0.095535   -0.896462
  C     -6.958625    0.307035   -1.325513
  N     -7.470173   -0.385360   -2.419607
  C     -6.670820   -1.234224   -3.027187
  C     -5.040586    0.795639    0.201434
  C     -5.898729    1.724136    0.903262
  C     -7.295110    1.924096    0.464452
  C     -7.792340    1.199553   -0.657027
  N     -8.034609    2.796242    1.148999
  S     -6.934735    3.475893    2.479507
  N     -5.487135    2.444304    1.941459
  H     -7.066990   -1.782293   -3.892108
  H     -4.696551   -2.208140   -3.106413
  H      6.988022   -1.265769    3.265372
  H     -8.816076    1.344026   -0.990403

----------------------------
CARTESIAN COORDINATES (A.U.)
----------------------------
  NO LB      ZA    FRAG     MASS         X           Y           Z
   0 C     6.0000    0    12.011    9.075410    0.681092   -5.473480
   1 C     6.0000    0    12.011    7.852713    0.235212   -3.186378
   2 C     6.0000    0    12.011    9.290011   -0.491800   -1.068408
   3 C     6.0000    0    12.011   11.957523   -0.699299   -1.345564
   4 C     6.0000    0    12.011   13.192844   -0.261892   -3.650962
   5 C     6.0000    0    12.011   11.709075    0.425046   -5.712365
   6 C     6.0000    0    12.011    8.732804   -1.055436    1.564613
   7 C     6.0000    0    12.011   11.110373   -1.524048    2.744790
   8 N     7.0000    0    14.007   13.009666   -1.337810    0.961681
   9 C     6.0000    0    12.011   11.364615   -2.042166    5.332249
  10 C     6.0000    0    12.011    9.169070   -2.065366    6.784049
  11 C     6.0000    0    12.011    6.803896   -1.626306    5.678274
  12 C     6.0000    0    12.011    6.516152   -1.153809    3.076675
  13 H     1.0000    0     1.008    5.124635   -1.700729    6.857707
  14 H     1.0000    0     1.008   14.878318   -1.561894    1.307910
  15 H     1.0000    0     1.008    9.282255   -2.443205    8.798311
  16 H     1.0000    0     1.008    5.818674    0.462559   -3.061950
  17 H     1.0000    0     1.008   15.232024   -0.440825   -3.813791
  18 H     1.0000    0     1.008   12.598728    0.781599   -7.528492
  19 H     1.0000    0     1.008    7.972694    1.240677   -7.112408
  20 C     6.0000    0    12.011   -6.902470    1.161332    1.223256
  21 N     7.0000    0    14.007   -6.201104    1.732703    3.595779
  22 O     8.0000    0    15.999   -3.690572    1.243202    3.775524
  23 C     6.0000    0    12.011   -2.804754    0.389948    1.549808
  24 C     6.0000    0    12.011   -4.761613    0.282488   -0.168118
  25 C     6.0000    0    12.011   -0.128470   -0.224198    1.369991
  26 N     7.0000    0    14.007    0.904000   -1.094095   -0.775891
  27 O     8.0000    0    15.999    3.399101   -1.460165   -0.288897
  28 C     6.0000    0    12.011    3.939922   -0.830410    2.106197
  29 C     6.0000    0    12.011    1.747997   -0.036867    3.289830
  30 H     1.0000    0     1.008    1.517432    0.619648    5.208548
  31 H     1.0000    0     1.008   -4.657947   -0.295271   -2.121732
  32 C     6.0000    0    12.011  -10.054864   -2.776806   -4.888696
  33 N     7.0000    0    14.007   -9.056626   -1.576554   -2.952642
  34 C     6.0000    0    12.011  -10.544017    0.180536   -1.694068
  35 C     6.0000    0    12.011  -13.149895    0.580211   -2.504857
  36 N     7.0000    0    14.007  -14.116581   -0.728225   -4.572395
  37 C     6.0000    0    12.011  -12.606024   -2.332346   -5.720555
  38 C     6.0000    0    12.011   -9.525327    1.503541    0.380655
  39 C     6.0000    0    12.011  -11.146983    3.258145    1.706917
  40 C     6.0000    0    12.011  -13.785759    3.636015    0.877687
  41 C     6.0000    0    12.011  -14.725389    2.266827   -1.241601
  42 N     7.0000    0    14.007  -15.183210    5.284131    2.171293
  43 S    16.0000    0    32.060  -13.104751    6.568485    4.685589
  44 N     7.0000    0    14.007  -10.369182    4.619064    3.668826
  45 H     1.0000    0     1.008  -13.354676   -3.368046   -7.355017
  46 H     1.0000    0     1.008   -8.875195   -4.172779   -5.870270
  47 H     1.0000    0     1.008   13.205449   -2.391956    6.170659
  48 H     1.0000    0     1.008  -16.659969    2.539841   -1.871590

--------------------------------
INTERNAL COORDINATES (ANGSTROEM)
--------------------------------
 C      0   0   0     0.000000000000     0.00000000     0.00000000
 C      1   0   0     1.392513705239     0.00000000     0.00000000
 C      2   1   0     1.408065599083   119.15139060     0.00000000
 C      3   2   1     1.423426565217   118.34197667     1.08003554
 C      4   3   2     1.403288032650   122.60292667   358.59091804
 C      5   4   3     1.392333029439   117.48273532     0.67798364
 C      3   2   1     1.455089696670   135.13221606   178.47727325
 C      7   3   2     1.426350865630   106.03085991   183.51866571
 N      8   7   3     1.382103112297   109.27641832   358.41200893
 C      8   7   3     1.402871820256   123.08735485   177.45207882
 C     10   8   7     1.392920432242   117.39015733   359.34449164
 C     11  10   8     1.401026856057   120.88493490     0.99803977
 C     12  11  10     1.407488811314   122.31879022     0.24338032
 H     12  11  10     1.086620966225   118.99032193   178.60298355
 H      9   8   7     1.012644889700   125.32660291   179.11701075
 H     11  10   8     1.086144941446   119.79460949   180.49649275
 H      2   1   3     1.085069072230   119.66130939   179.65710704
 H      5   4   3     1.086655752918   121.14164556   180.26124842
 H      6   5   4     1.086674315465   119.59831993   179.92474310
 H      1   2   3     1.086451837945   119.36873401   179.94363882
 C     17   2   1     7.113031215639   164.56105117   183.08070140
 N     21  17   2     1.343656372124    92.76061937    26.10291104
 O     22  21  17     1.356871822996   107.03710730   346.41982050
 C     23  22  21     1.345663841088   110.10644759     0.39256761
 C     24  23  22     1.379124977646   109.22179353   359.56436541
 C     24  23  22     1.456151781543   118.09121458   179.59915434
 N     26  24  23     1.341599935923   121.86837944   179.75255532
 O     27  26  24     1.359141011647   106.50132090   179.84833206
 C     28  27  26     1.341394147360   110.54902793   359.80995355
 C     29  28  27     1.383495621346   108.92317632     0.58910836
 H     30  29  28     1.080046766273   128.16675789   180.73201540
 H     25  24  23     1.079464724469   127.21565802   178.98837359
 C     32  25  24     3.467658337402   118.02077106   153.32891383
 N     33  32  25     1.316086821908    32.64516296    11.73789658
 C     34  33  32     1.388392895286   117.97458582   148.38841300
 C     35  34  33     1.459581574759   119.44800962     1.67930328
 N     36  35  34     1.392168898430   120.40455222   357.97582623
 C     37  36  35     1.314795983447   117.44349120     0.73158769
 C     35  34  33     1.409295872642   119.31088120   180.23805846
 C     39  35  34     1.446055751495   118.03933885   182.07118178
 C     40  39  35     1.477300277340   120.24367656   359.75124740
 C     36  35  34     1.392316375563   121.16335403   177.96177624
 N     41  40  39     1.332704431495   117.41925663   180.20954211
 S     43  41  40     1.855235720467   106.20950478     0.33285592
 N     40  39  35     1.328873730350   122.91150816   180.71182898
 H     38  37  36     1.097914936781   117.83680764   180.12143163
 H     33  32  25     1.097816363190    89.21420025   219.70872067
 H     10   8   7     1.086290447960   121.19357611   179.95874711
 H     42  36  35     1.086299283525   120.14689418   180.01361528

---------------------------
INTERNAL COORDINATES (A.U.)
---------------------------
 C      0   0   0     0.000000000000     0.00000000     0.00000000
 C      1   0   0     2.631469540634     0.00000000     0.00000000
 C      2   1   0     2.660858360863   119.15139060     0.00000000
 C      3   2   1     2.689886380008   118.34197667     1.08003554
 C      4   3   2     2.651830068717   122.60292667   358.59091804
 C      5   4   3     2.631128112852   117.48273532     0.67798364
 C      3   2   1     2.749721026996   135.13221606   178.47727325
 C      7   3   2     2.695412506923   106.03085991   183.51866571
 N      8   7   3     2.611796371081   109.27641832   358.41200893
 C      8   7   3     2.651043541279   123.08735485   177.45207882
 C     10   8   7     2.632238143280   117.39015733   359.34449164
 C     11  10   8     2.647557064217   120.88493490     0.99803977
 C     12  11  10     2.659768389942   122.31879022     0.24338032
 H     12  11  10     2.053416037542   118.99032193   178.60298355
 H      9   8   7     1.913621512448   125.32660291   179.11701075
 H     11  10   8     2.052516481077   119.79460949   180.49649275
 H      2   1   3     2.050483382902   119.66130939   179.65710704
 H      5   4   3     2.053481774865   121.14164556   180.26124842
 H      6   5   4     2.053516852995   119.59831993   179.92474310
 H      1   2   3     2.053096431411   119.36873401   179.94363882
 C     17   2   1    13.441680979591   164.56105117   183.08070140
 N     21  17   2     2.539142561413    92.76061937    26.10291104
 O     22  21  17     2.564116144298   107.03710730   346.41982050
 C     23  22  21     2.542936127977   110.10644759     0.39256761
 C     24  23  22     2.606168512202   109.22179353   359.56436541
 C     24  23  22     2.751728076539   118.09121458   179.59915434
 N     26  24  23     2.535256460180   121.86837944   179.75255532
 O     27  26  24     2.568404289393   106.50132090   179.84833206
 C     28  27  26     2.534867576156   110.54902793   359.80995355
 C     29  28  27     2.614427831823   108.92317632     0.58910836
 H     30  29  28     2.040992600083   128.16675789   180.73201540
 H     25  24  23     2.039892700475   127.21565802   178.98837359
 C     32  25  24     6.552924583699   118.02077106   153.32891383
 N     33  32  25     2.487043661869    32.64516296    11.73789658
 C     34  33  32     2.623682338373   117.97458582   148.38841300
 C     35  34  33     2.758209446413   119.44800962     1.67930328
 N     36  35  34     2.630817950196   120.40455222   357.97582623
 C     37  36  35     2.484604330694   117.44349120     0.73158769
 C     35  34  33     2.663183240958   119.31088120   180.23805846
 C     39  35  34     2.732649344707   118.03933885   182.07118178
 C     40  39  35     2.791692941738   120.24367656   359.75124740
 C     36  35  34     2.631096641587   121.16335403   177.96177624
 N     41  40  39     2.518446392989   117.41925663   180.20954211
 S     43  41  40     3.505887425551   106.20950478     0.33285592
 N     40  39  35     2.511207416924   122.91150816   180.71182898
 H     38  37  36     2.074758548858   117.83680764   180.12143163
 H     33  32  25     2.074572271767    89.21420025   219.70872067
 H     10   8   7     2.052791448539   121.19357611   179.95874711
 H     42  36  35     2.052808145336   120.14689418   180.01361528

---------------------
BASIS SET INFORMATION
---------------------
There are 5 groups of distinct atoms

 Group   1 Type C   : 11s6p2d1f contracted to 5s3p2d1f pattern {62111/411/11/1}
 Group   2 Type N   : 11s6p2d1f contracted to 5s3p2d1f pattern {62111/411/11/1}
 Group   3 Type H   : 5s1p contracted to 3s1p pattern {311/1}
 Group   4 Type O   : 11s6p2d1f contracted to 5s3p2d1f pattern {62111/411/11/1}
 Group   5 Type S   : 14s9p3d1f contracted to 5s5p2d1f pattern {73211/51111/21/1}

Atom   0C    basis set group =>   1
Atom   1C    basis set group =>   1
Atom   2C    basis set group =>   1
Atom   3C    basis set group =>   1
Atom   4C    basis set group =>   1
Atom   5C    basis set group =>   1
Atom   6C    basis set group =>   1
Atom   7C    basis set group =>   1
Atom   8N    basis set group =>   2
Atom   9C    basis set group =>   1
Atom  10C    basis set group =>   1
Atom  11C    basis set group =>   1
Atom  12C    basis set group =>   1
Atom  13H    basis set group =>   3
Atom  14H    basis set group =>   3
Atom  15H    basis set group =>   3
Atom  16H    basis set group =>   3
Atom  17H    basis set group =>   3
Atom  18H    basis set group =>   3
Atom  19H    basis set group =>   3
Atom  20C    basis set group =>   1
Atom  21N    basis set group =>   2
Atom  22O    basis set group =>   4
Atom  23C    basis set group =>   1
Atom  24C    basis set group =>   1
Atom  25C    basis set group =>   1
Atom  26N    basis set group =>   2
Atom  27O    basis set group =>   4
Atom  28C    basis set group =>   1
Atom  29C    basis set group =>   1
Atom  30H    basis set group =>   3
Atom  31H    basis set group =>   3
Atom  32C    basis set group =>   1
Atom  33N    basis set group =>   2
Atom  34C    basis set group =>   1
Atom  35C    basis set group =>   1
Atom  36N    basis set group =>   2
Atom  37C    basis set group =>   1
Atom  38C    basis set group =>   1
Atom  39C    basis set group =>   1
Atom  40C    basis set group =>   1
Atom  41C    basis set group =>   1
Atom  42N    basis set group =>   2
Atom  43S    basis set group =>   5
Atom  44N    basis set group =>   2
Atom  45H    basis set group =>   3
Atom  46H    basis set group =>   3
Atom  47H    basis set group =>   3
Atom  48H    basis set group =>   3
-------------------------------
AUXILIARY BASIS SET INFORMATION
-------------------------------
There are 5 groups of distinct atoms

 Group   1 Type C   : 12s5p4d2f1g contracted to 6s4p3d1f1g pattern {711111/2111/211/2/1}
 Group   2 Type N   : 12s5p4d2f1g contracted to 6s4p3d1f1g pattern {711111/2111/211/2/1}
 Group   3 Type H   : 5s2p1d contracted to 3s1p1d pattern {311/2/1}
 Group   4 Type O   : 12s5p4d2f1g contracted to 6s4p3d1f1g pattern {711111/2111/211/2/1}
 Group   5 Type S   : 14s5p5d2f1g contracted to 8s4p3d1f1g pattern {71111111/2111/311/2/1}

Atom   0C    basis set group =>   1
Atom   1C    basis set group =>   1
Atom   2C    basis set group =>   1
Atom   3C    basis set group =>   1
Atom   4C    basis set group =>   1
Atom   5C    basis set group =>   1
Atom   6C    basis set group =>   1
Atom   7C    basis set group =>   1
Atom   8N    basis set group =>   2
Atom   9C    basis set group =>   1
Atom  10C    basis set group =>   1
Atom  11C    basis set group =>   1
Atom  12C    basis set group =>   1
Atom  13H    basis set group =>   3
Atom  14H    basis set group =>   3
Atom  15H    basis set group =>   3
Atom  16H    basis set group =>   3
Atom  17H    basis set group =>   3
Atom  18H    basis set group =>   3
Atom  19H    basis set group =>   3
Atom  20C    basis set group =>   1
Atom  21N    basis set group =>   2
Atom  22O    basis set group =>   4
Atom  23C    basis set group =>   1
Atom  24C    basis set group =>   1
Atom  25C    basis set group =>   1
Atom  26N    basis set group =>   2
Atom  27O    basis set group =>   4
Atom  28C    basis set group =>   1
Atom  29C    basis set group =>   1
Atom  30H    basis set group =>   3
Atom  31H    basis set group =>   3
Atom  32C    basis set group =>   1
Atom  33N    basis set group =>   2
Atom  34C    basis set group =>   1
Atom  35C    basis set group =>   1
Atom  36N    basis set group =>   2
Atom  37C    basis set group =>   1
Atom  38C    basis set group =>   1
Atom  39C    basis set group =>   1
Atom  40C    basis set group =>   1
Atom  41C    basis set group =>   1
Atom  42N    basis set group =>   2
Atom  43S    basis set group =>   5
Atom  44N    basis set group =>   2
Atom  45H    basis set group =>   3
Atom  46H    basis set group =>   3
Atom  47H    basis set group =>   3
Atom  48H    basis set group =>   3
-------------------------
ECP PARAMETER INFORMATION
-------------------------



--------------------------------------------------------------------------
[[17929,1],7]: A high-performance Open MPI point-to-point messaging module
was unable to find any relevant network interfaces:

Module: OpenFabrics (openib)
  Host: cx1-136-1-3

Another transport will be used instead, although this may result in
lower performance.
--------------------------------------------------------------------------


           ************************************************************
           *        Program running with 24 parallel MPI-processes    *
           *              working on a common directory               *
           ************************************************************
------------------------------------------------------------------------------
                           ORCA GTO INTEGRAL CALCULATION
                           -- RI-GTO INTEGRALS CHOSEN --
------------------------------------------------------------------------------

                         BASIS SET STATISTICS AND STARTUP INFO

Gaussian basis set:
 # of primitive gaussian shells          ...  805
 # of primitive gaussian functions       ... 1777
 # of contracted shells                  ...  450
 # of contracted basis functions         ... 1200
 Highest angular momentum                ...    3
 Maximum contraction depth               ...    7
Auxiliary gaussian basis set:
 # of primitive gaussian shells          ...  971
 # of primitive gaussian functions       ... 2735
 # of contracted shells                  ...  607
 # of contracted aux-basis functions     ... 1909
 Highest angular momentum                ...    4
 Maximum contraction depth               ...    7
Ratio of auxiliary to basis functions    ...  1.59
Integral package used                  ... LIBINT
 One Electron integrals                  
   ECP integrals                         ... done
 Ordering auxiliary basis shells         ... done
 Integral threshhold             Thresh  ...  2.500e-11
 Primitive cut-off               TCut    ...  2.500e-12
 Pre-screening matrix                    ... done
 Shell pair data                         ... 
 Ordering of the shell pairs             ... done (   0.017 sec) 49948 of 101475 pairs
 Determination of significant pairs      ... done (   0.000 sec)
 Creation of shell pair data             ... done (   0.012 sec)
 Storage of shell pair data              ... done (   0.127 sec)
 Shell pair data done in (   0.156 sec)
 Computing two index integrals           ... done
 Cholesky decomposition of the V-matrix  ... done


Timings:
 Total evaluation time                   ...   6.461 sec (  0.108 min)
 One electron matrix time                ...   1.816 sec (  0.030 min) = 28.1%
 Schwartz matrix evaluation time         ...   3.284 sec (  0.055 min) = 50.8%
 Two index repulsion integral time       ...   0.477 sec (  0.008 min) =  7.4%
 Cholesky decomposition of V             ...   0.685 sec (  0.011 min) = 10.6%
 Three index repulsion integral time     ...   0.000 sec (  0.000 min) =  0.0%

--------------------------------------------------------------------------
[[18423,1],5]: A high-performance Open MPI point-to-point messaging module
was unable to find any relevant network interfaces:

Module: OpenFabrics (openib)
  Host: cx1-136-1-3

Another transport will be used instead, although this may result in
lower performance.
--------------------------------------------------------------------------


           ************************************************************
           *        Program running with 24 parallel MPI-processes    *
           *              working on a common directory               *
           ************************************************************
-------------------------------------------------------------------------------
                                 ORCA SCF
-------------------------------------------------------------------------------

------------
SCF SETTINGS
------------
Hamiltonian:
 Density Functional     Method          .... DFT(GTOs)
 Exchange Functional    Exchange        .... WB97X-D3
 Correlation Functional Correlation     .... WB97X-D3
 Gradients option       PostSCFGGA      .... off
 Hybrid DFT is turned on
   Fraction HF Exchange ScalHFX         ....  0.195728
   Scaling of DF-GGA-X  ScalDFX         ....  0.000000
   Scaling of DF-GGA-C  ScalDFC         ....  1.000000
   Scaling of DF-LDA-C  ScalLDAC        ....  1.000000
   Perturbative correction              ....  0.000000
 Long-range corrected/Screened/Range-Separated Hybrid DFT is turned on
   Amount of maximum screened exact exchange              ....  0.804272
   Range separation parameter mu (erf(mu*r12)/r12)        ....  0.250000
 RI-approximation to the Coulomb term is turned on
   Number of auxiliary basis functions  .... 1909
   RIJ-COSX (HFX calculated with COS-X)).... on


General Settings:
 Integral files         IntName         .... total
 Hartree-Fock type      HFTyp           .... RHF
 Total Charge           Charge          ....    0
 Multiplicity           Mult            ....    1
 Number of Electrons    NEL             ....  250
 Basis Dimension        Dim             .... 1200
 Nuclear Repulsion      ENuc            ....   3405.9003252230 Eh

Convergence Acceleration:
 DIIS                   CNVDIIS         .... on
   Start iteration      DIISMaxIt       ....    12
   Startup error        DIISStart       ....  0.200000
   # of expansion vecs  DIISMaxEq       ....     5
   Bias factor          DIISBfac        ....   1.050
   Max. coefficient     DIISMaxC        ....  10.000
 Newton-Raphson         CNVNR           .... off
 SOSCF                  CNVSOSCF        .... on
   Start iteration      SOSCFMaxIt      ....   150
   Startup grad/error   SOSCFStart      ....  0.003300
 Level Shifting         CNVShift        .... on
   Level shift para.    LevelShift      ....    0.2500
   Turn off err/grad.   ShiftErr        ....    0.0010
 Zerner damping         CNVZerner       .... off
 Static damping         CNVDamp         .... on
   Fraction old density DampFac         ....    0.7000
   Max. Damping (<1)    DampMax         ....    0.9800
   Min. Damping (>=0)   DampMin         ....    0.0000
   Turn off err/grad.   DampErr         ....    0.1000
 Fernandez-Rico         CNVRico         .... off

SCF Procedure:
 Maximum # iterations   MaxIter         ....   125
 SCF integral mode      SCFMode         .... Direct
   Integral package                     .... LIBINT
 Reset frequeny         DirectResetFreq ....    20
 Integral Threshold     Thresh          ....  2.500e-11 Eh
 Primitive CutOff       TCut            ....  2.500e-12 Eh

Convergence Tolerance:
 Convergence Check Mode ConvCheckMode   .... Total+1el-Energy
 Convergence forced     ConvForced      .... 1
 Energy Change          TolE            ....  1.000e-08 Eh
 1-El. energy change                    ....  1.000e-05 Eh
 Orbital Gradient       TolG            ....  1.000e-05
 Orbital Rotation angle TolX            ....  1.000e-05
 DIIS Error             TolErr          ....  5.000e-07


Diagonalization of the overlap matrix:
Smallest eigenvalue                        ... 5.921e-06
Time for diagonalization                   ...    0.504 sec
Threshold for overlap eigenvalues          ... 1.000e-08
Number of eigenvalues below threshold      ... 0
Time for construction of square roots      ...    0.552 sec
Total time needed                          ...    1.066 sec

-------------------
DFT GRID GENERATION
-------------------

General Integration Accuracy     IntAcc      ...  5.010
Radial Grid Type                 RadialGrid  ... Gauss-Chebyshev
Angular Grid (max. acc.)         AngularGrid ... Lebedev-434
Angular grid pruning method      GridPruning ... 3 (G Style)
Weight generation scheme         WeightScheme... Becke
Basis function cutoff            BFCut       ...    1.0000e-11
Integration weight cutoff        WCut        ...    1.0000e-14
Grids for H and He will be reduced by one unit

# of grid points (after initial pruning)     ... 472698 (   0.0 sec)
# of grid points (after weights+screening)   ... 414546 (   1.7 sec)
nearest neighbour list constructed           ...    0.0 sec
Grid point re-assignment to atoms done       ...    0.2 sec
Grid point division into batches done        ...    4.7 sec
Reduced shell lists constructed in    5.8 sec

Total number of grid points                  ...   414546
Total number of batches                      ...     6503
Average number of points per batch           ...       63
Average number of grid points per atom       ...     8460
Average number of shells per batch           ...   134.62 (29.92%)
Average number of basis functions per batch  ...   347.74 (28.98%)
Average number of large shells per batch     ...    92.43 (68.66%)
Average number of large basis fcns per batch ...   238.92 (68.71%)
Maximum spatial batch extension              ...  12.15, 13.68, 15.59 au
Average spatial batch extension              ...   0.05,  0.06,  0.06 au

Time for grid setup =    8.523 sec

------------------------------
INITIAL GUESS: MODEL POTENTIAL
------------------------------
Loading Hartree-Fock densities                     ... done
Calculating cut-offs                               ... done
Setting up the integral package                    ... done
Initializing the effective Hamiltonian             ... done
Starting the Coulomb interaction                   ... done (   0.7 sec)
Reading the grid                                   ... done
Mapping shells                                     ... done
Starting the XC term evaluation                    ... done (   2.3 sec)
  promolecular density results
     # of electrons  =    249.993695144
     EX              =   -223.701923855
     EC              =     -8.574304797
     EX+EC           =   -232.276228653
Transforming the Hamiltonian                       ... done (   0.3 sec)
Diagonalizing the Hamiltonian                      ... done (   0.5 sec)
Back transforming the eigenvectors                 ... done (   0.2 sec)
Now organizing SCF variables                       ... done
                      ------------------
                      INITIAL GUESS DONE (  12.8 sec)
                      ------------------
--------------------
COSX GRID GENERATION
--------------------

General Integration Accuracy     IntAcc      ...  3.340
Radial Grid Type                 RadialGrid  ... Gauss-Chebyshev
Angular Grid (max. acc.)         AngularGrid ... Lebedev-50
Angular grid pruning method      GridPruning ... 3 (G Style)
Weight generation scheme         WeightScheme... Becke
Basis function cutoff            BFCut       ...    1.0000e-11
Integration weight cutoff        WCut        ...    1.0000e-14
Grids for H and He will be reduced by one unit

# of grid points (after initial pruning)     ...  25068 (   0.0 sec)
# of grid points (after weights+screening)   ...  22896 (   0.1 sec)
nearest neighbour list constructed           ...    0.0 sec
Grid point re-assignment to atoms done       ...    0.0 sec
Grid point division into batches done        ...    0.0 sec
Reduced shell lists constructed in    0.1 sec

Total number of grid points                  ...    22896
Total number of batches                      ...      382
Average number of points per batch           ...       59
Average number of grid points per atom       ...      467
Average number of shells per batch           ...   148.76 (33.06%)
Average number of basis functions per batch  ...   390.41 (32.53%)
Average number of large shells per batch     ...   106.53 (71.61%)
Average number of large basis fcns per batch ...   279.94 (71.70%)
Maximum spatial batch extension              ...   4.25, 16.18,  5.61 au
Average spatial batch extension              ...   0.11,  0.25,  0.14 au

Overlap Fitting                  UseSFitting ... on
Constructing numerical overlap ... done (      0.1 sec)
Inverting numerical overlap    ... done (      0.2 sec)
Obtaining analytic overlap     ... done (      0.0 sec)
Final contraction and storage  ... done (      0.6 sec)


General Integration Accuracy     IntAcc      ...  3.670
Radial Grid Type                 RadialGrid  ... Gauss-Chebyshev
Angular Grid (max. acc.)         AngularGrid ... Lebedev-50
Angular grid pruning method      GridPruning ... 3 (G Style)
Weight generation scheme         WeightScheme... Becke
Basis function cutoff            BFCut       ...    1.0000e-11
Integration weight cutoff        WCut        ...    1.0000e-14
Grids for H and He will be reduced by one unit

# of grid points (after initial pruning)     ...  31296 (   0.0 sec)
# of grid points (after weights+screening)   ...  28480 (   0.1 sec)
nearest neighbour list constructed           ...    0.0 sec
Grid point re-assignment to atoms done       ...    0.0 sec
Grid point division into batches done        ...    0.0 sec
Reduced shell lists constructed in    0.1 sec

Total number of grid points                  ...    28480
Total number of batches                      ...      469
Average number of points per batch           ...       60
Average number of grid points per atom       ...      581
Average number of shells per batch           ...   146.86 (32.63%)
Average number of basis functions per batch  ...   384.38 (32.03%)
Average number of large shells per batch     ...   102.67 (69.91%)
Average number of large basis fcns per batch ...   268.76 (69.92%)
Maximum spatial batch extension              ...   8.02, 28.44, 10.40 au
Average spatial batch extension              ...   0.11,  0.30,  0.14 au

Overlap Fitting                  UseSFitting ... on
Constructing numerical overlap ... done (      0.2 sec)
Inverting numerical overlap    ... done (      0.2 sec)
Obtaining analytic overlap     ... done (      0.0 sec)
Final contraction and storage  ... done (      0.6 sec)


General Integration Accuracy     IntAcc      ...  4.010
Radial Grid Type                 RadialGrid  ... Gauss-Chebyshev
Angular Grid (max. acc.)         AngularGrid ... Lebedev-110
Angular grid pruning method      GridPruning ... 3 (G Style)
Weight generation scheme         WeightScheme... Becke
Basis function cutoff            BFCut       ...    1.0000e-11
Integration weight cutoff        WCut        ...    1.0000e-14
Grids for H and He will be reduced by one unit

# of grid points (after initial pruning)     ...  61604 (   0.0 sec)
# of grid points (after weights+screening)   ...  55555 (   0.3 sec)
nearest neighbour list constructed           ...    0.0 sec
Grid point re-assignment to atoms done       ...    0.0 sec
Grid point division into batches done        ...    0.1 sec
Reduced shell lists constructed in    0.3 sec

Total number of grid points                  ...    55555
Total number of batches                      ...      894
Average number of points per batch           ...       62
Average number of grid points per atom       ...     1134
Average number of shells per batch           ...   145.64 (32.36%)
Average number of basis functions per batch  ...   381.49 (31.79%)
Average number of large shells per batch     ...   101.92 (69.98%)
Average number of large basis fcns per batch ...   266.74 (69.92%)
Maximum spatial batch extension              ...  13.26, 34.94, 12.82 au
Average spatial batch extension              ...   0.10,  0.21,  0.12 au

Overlap Fitting                  UseSFitting ... on
Constructing numerical overlap ... done (      0.2 sec)
Inverting numerical overlap    ... done (      0.2 sec)
Obtaining analytic overlap     ... done (      0.0 sec)
Final contraction and storage  ... done (      1.1 sec)

Time for X-Grid setup             =    4.984 sec
--------------
SCF ITERATIONS
--------------
ITER       Energy         Delta-E        Max-DP      RMS-DP      [F,P]     Damp
               ***  Starting incremental Fock matrix formation  ***
  0  -1929.6943915534   0.000000000000 0.08472561  0.00068719  0.1883817 0.7000
  1  -1930.0011323222  -0.306740768850 0.08694985  0.00059134  0.0959414 0.7000
                               ***Turning on DIIS***
  2  -1930.1444677044  -0.143335382222 0.16424854  0.00130058  0.0546285 0.0000
  3  -1930.3762646865  -0.231796982021 0.08943141  0.00039648  0.0556207 0.0000
  4  -1930.4217940045  -0.045529318075 0.04404449  0.00018658  0.0140050 0.0000
  5  -1930.4243620130  -0.002568008434 0.01539206  0.00007346  0.0059292 0.0000
  6  -1930.4252325761  -0.000870563109 0.00747366  0.00004226  0.0029861 0.0000
  7  -1930.4256920020  -0.000459425894 0.00410574  0.00002709  0.0019724 0.0000
  8  -1930.4259538332  -0.000261831266 0.00287012  0.00002043  0.0015619 0.0000
                      *** Initiating the SOSCF procedure ***
                           *** Shutting down DIIS ***
                      *** Re-Reading the Fockian *** 
                      *** Removing any level shift *** 
ITER      Energy       Delta-E        Grad      Rot      Max-DP    RMS-DP
  9  -1930.42609411  -0.0001402751  0.003065  0.003065  0.002706  0.000023
               *** Restarting incremental Fock matrix formation ***
 10  -1930.42619304  -0.0000989355  0.000496  0.001815  0.014722  0.000136
 11  -1930.42619684  -0.0000037917  0.000336  0.001953  0.010578  0.000090
 12  -1930.42620342  -0.0000065871  0.000141  0.001034  0.007109  0.000061
 13  -1930.42620437  -0.0000009514  0.000075  0.000150  0.003296  0.000029
 14  -1930.42620501  -0.0000006327  0.000024  0.000109  0.000674  0.000007
 15  -1930.42620500   0.0000000114  0.000020  0.000039  0.000351  0.000002
                  ***Gradient check signals convergence***
              ***Rediagonalizing the Fockian in SOSCF/NRSCF***

               *****************************************************
               *                     SUCCESS                       *
               *           SCF CONVERGED AFTER  16 CYCLES          *
               *****************************************************

Old exchange energy                            =    -71.194283457 Eh
New exchange energy                            =    -71.194575362 Eh
Exchange energy change after final integration =     -0.000291906 Eh
Total energy after final integration           =  -1930.426496886 Eh
Final COS-X integration done in                =    55.511 sec

----------------
TOTAL SCF ENERGY
----------------

Total Energy       :        -1930.42649689 Eh          -52529.57553 eV

Components:
Nuclear Repulsion  :         3405.90032522 Eh           92679.25957 eV
Electronic Energy  :        -5336.32682211 Eh         -145208.83510 eV
One Electron Energy:        -9403.62113325 Eh         -255885.54001 eV
Two Electron Energy:         4067.29431114 Eh          110676.70490 eV

Virial components:
Potential Energy   :        -3851.79390783 Eh         -104812.64080 eV
Kinetic Energy     :         1921.36741094 Eh           52283.06527 eV
Virial Ratio       :            2.00471492


DFT components:
N(Alpha)           :      125.000003661134 electrons
N(Beta)            :      125.000003661134 electrons
N(Total)           :      250.000007322267 electrons
E(XC)              :     -165.414374069376 Eh       

---------------
SCF CONVERGENCE
---------------

  Last Energy change         ...    1.5060e-08  Tolerance :   1.0000e-08
  Last MAX-Density change    ...    9.3709e-13  Tolerance :   1.0000e-07
  Last RMS-Density change    ...    1.3460e-15  Tolerance :   5.0000e-09
  Last Orbital Gradient      ...    2.4716e-06  Tolerance :   1.0000e-05
  Last Orbital Rotation      ...    1.9153e-05  Tolerance :   1.0000e-05

             **** THE GBW FILE WAS UPDATED (total.gbw) ****
             **** DENSITY FILE WAS UPDATED (total.scfp.tmp) ****
             **** ENERGY FILE WAS UPDATED (total.en.tmp) ****
----------------
ORBITAL ENERGIES
----------------

  NO   OCC          E(Eh)            E(eV) 
   0   2.0000     -89.041203     -2422.9343 
   1   2.0000     -19.338821      -526.2361 
   2   2.0000     -19.335952      -526.1580 
   3   2.0000     -14.486314      -394.1927 
   4   2.0000     -14.484356      -394.1394 
   5   2.0000     -14.482563      -394.0906 
   6   2.0000     -14.478743      -393.9866 
   7   2.0000     -14.472936      -393.8286 
   8   2.0000     -14.466568      -393.6553 
   9   2.0000     -14.465759      -393.6333 
  10   2.0000     -10.367940      -282.1260 
  11   2.0000     -10.363813      -282.0137 
  12   2.0000     -10.360372      -281.9200 
  13   2.0000     -10.360354      -281.9196 
  14   2.0000     -10.357835      -281.8510 
  15   2.0000     -10.356959      -281.8272 
  16   2.0000     -10.355827      -281.7964 
  17   2.0000     -10.355667      -281.7920 
  18   2.0000     -10.344132      -281.4781 
  19   2.0000     -10.340346      -281.3751 
  20   2.0000     -10.337925      -281.3092 
  21   2.0000     -10.335845      -281.2527 
  22   2.0000     -10.329304      -281.0746 
  23   2.0000     -10.320160      -280.8258 
  24   2.0000     -10.319584      -280.8102 
  25   2.0000     -10.305549      -280.4282 
  26   2.0000     -10.298780      -280.2441 
  27   2.0000     -10.298771      -280.2438 
  28   2.0000     -10.296169      -280.1730 
  29   2.0000     -10.294653      -280.1317 
  30   2.0000     -10.293530      -280.1012 
  31   2.0000     -10.293338      -280.0960 
  32   2.0000     -10.288301      -279.9589 
  33   2.0000     -10.287010      -279.9238 
  34   2.0000     -10.284283      -279.8496 
  35   2.0000     -10.275794      -279.6186 
  36   2.0000      -8.129545      -221.2162 
  37   2.0000      -6.085158      -165.5856 
  38   2.0000      -6.078705      -165.4100 
  39   2.0000      -6.075439      -165.3211 
  40   2.0000      -1.287536       -35.0356 
  41   2.0000      -1.282463       -34.8976 
  42   2.0000      -1.119663       -30.4676 
  43   2.0000      -1.110191       -30.2098 
  44   2.0000      -1.094365       -29.7792 
  45   2.0000      -1.049596       -28.5610 
  46   2.0000      -1.015857       -27.6429 
  47   2.0000      -1.006190       -27.3798 
  48   2.0000      -0.991489       -26.9798 
  49   2.0000      -0.983139       -26.7526 
  50   2.0000      -0.968604       -26.3571 
  51   2.0000      -0.966308       -26.2946 
  52   2.0000      -0.935672       -25.4609 
  53   2.0000      -0.915336       -24.9076 
  54   2.0000      -0.904638       -24.6165 
  55   2.0000      -0.885150       -24.0862 
  56   2.0000      -0.883096       -24.0303 
  57   2.0000      -0.874075       -23.7848 
  58   2.0000      -0.849223       -23.1085 
  59   2.0000      -0.843538       -22.9538 
  60   2.0000      -0.818332       -22.2680 
  61   2.0000      -0.780613       -21.2416 
  62   2.0000      -0.777780       -21.1645 
  63   2.0000      -0.767714       -20.8906 
  64   2.0000      -0.759169       -20.6580 
  65   2.0000      -0.746908       -20.3244 
  66   2.0000      -0.737863       -20.0783 
  67   2.0000      -0.721782       -19.6407 
  68   2.0000      -0.719952       -19.5909 
  69   2.0000      -0.711516       -19.3613 
  70   2.0000      -0.694011       -18.8850 
  71   2.0000      -0.671769       -18.2798 
  72   2.0000      -0.664842       -18.0913 
  73   2.0000      -0.650880       -17.7113 
  74   2.0000      -0.646866       -17.6021 
  75   2.0000      -0.636820       -17.3288 
  76   2.0000      -0.630711       -17.1625 
  77   2.0000      -0.618234       -16.8230 
  78   2.0000      -0.610390       -16.6096 
  79   2.0000      -0.606718       -16.5096 
  80   2.0000      -0.597928       -16.2704 
  81   2.0000      -0.591225       -16.0881 
  82   2.0000      -0.580659       -15.8005 
  83   2.0000      -0.571097       -15.5403 
  84   2.0000      -0.568694       -15.4749 
  85   2.0000      -0.565653       -15.3922 
  86   2.0000      -0.564265       -15.3544 
  87   2.0000      -0.556685       -15.1482 
  88   2.0000      -0.550840       -14.9891 
  89   2.0000      -0.549950       -14.9649 
  90   2.0000      -0.543505       -14.7895 
  91   2.0000      -0.535552       -14.5731 
  92   2.0000      -0.532361       -14.4863 
  93   2.0000      -0.531907       -14.4739 
  94   2.0000      -0.526008       -14.3134 
  95   2.0000      -0.516298       -14.0492 
  96   2.0000      -0.506934       -13.7944 
  97   2.0000      -0.505113       -13.7448 
  98   2.0000      -0.497161       -13.5284 
  99   2.0000      -0.489912       -13.3312 
 100   2.0000      -0.475366       -12.9354 
 101   2.0000      -0.473446       -12.8831 
 102   2.0000      -0.470509       -12.8032 
 103   2.0000      -0.469715       -12.7816 
 104   2.0000      -0.448190       -12.1959 
 105   2.0000      -0.446547       -12.1512 
 106   2.0000      -0.444145       -12.0858 
 107   2.0000      -0.438395       -11.9293 
 108   2.0000      -0.433155       -11.7867 
 109   2.0000      -0.430167       -11.7054 
 110   2.0000      -0.427581       -11.6351 
 111   2.0000      -0.424860       -11.5610 
 112   2.0000      -0.413628       -11.2554 
 113   2.0000      -0.410999       -11.1839 
 114   2.0000      -0.395110       -10.7515 
 115   2.0000      -0.393243       -10.7007 
 116   2.0000      -0.382680       -10.4133 
 117   2.0000      -0.373769       -10.1708 
 118   2.0000      -0.367081        -9.9888 
 119   2.0000      -0.356646        -9.7048 
 120   2.0000      -0.341372        -9.2892 
 121   2.0000      -0.331890        -9.0312 
 122   2.0000      -0.305686        -8.3181 
 123   2.0000      -0.303309        -8.2535 
 124   2.0000      -0.292088        -7.9481 
 125   0.0000      -0.083679        -2.2770 
 126   0.0000      -0.000724        -0.0197 
 127   0.0000       0.006064         0.1650 
 128   0.0000       0.020496         0.5577 
 129   0.0000       0.024233         0.6594 
 130   0.0000       0.036831         1.0022 
 131   0.0000       0.047514         1.2929 
 132   0.0000       0.055222         1.5027 
 133   0.0000       0.080978         2.2035 
 134   0.0000       0.084424         2.2973 
 135   0.0000       0.094277         2.5654 
 136   0.0000       0.106919         2.9094 
 137   0.0000       0.114870         3.1258 
 138   0.0000       0.127460         3.4684 
 139   0.0000       0.127743         3.4761 
 140   0.0000       0.136131         3.7043 
 141   0.0000       0.137007         3.7282 
 142   0.0000       0.140213         3.8154 
 143   0.0000       0.150528         4.0961 
 144   0.0000       0.153539         4.1780 
 145   0.0000       0.154757         4.2111 
 146   0.0000       0.161431         4.3928 
 147   0.0000       0.163664         4.4535 
 148   0.0000       0.166671         4.5353 
 149   0.0000       0.171313         4.6617 
 150   0.0000       0.176977         4.8158 
 151   0.0000       0.177963         4.8426 
 152   0.0000       0.180029         4.8988 
 153   0.0000       0.187454         5.1009 
 154   0.0000       0.193577         5.2675 
 155   0.0000       0.194498         5.2926 
 156   0.0000       0.199662         5.4331 
 157   0.0000       0.209013         5.6875 
 158   0.0000       0.210023         5.7150 
 159   0.0000       0.211419         5.7530 
 160   0.0000       0.224987         6.1222 
 161   0.0000       0.229870         6.2551 
 162   0.0000       0.233533         6.3548 
 163   0.0000       0.235270         6.4020 
 164   0.0000       0.247553         6.7363 
 165   0.0000       0.249497         6.7892 
 166   0.0000       0.250732         6.8228 
 167   0.0000       0.255069         6.9408 
 168   0.0000       0.257019         6.9938 
 169   0.0000       0.257941         7.0189 
 170   0.0000       0.259204         7.0533 
 171   0.0000       0.264381         7.1942 
 172   0.0000       0.267035         7.2664 
 173   0.0000       0.274649         7.4736 
 174   0.0000       0.277610         7.5542 
 175   0.0000       0.280247         7.6259 
 176   0.0000       0.280985         7.6460 
 177   0.0000       0.285198         7.7606 
 178   0.0000       0.286427         7.7941 
 179   0.0000       0.290084         7.8936 
 180   0.0000       0.292772         7.9667 
 181   0.0000       0.293528         7.9873 
 182   0.0000       0.295216         8.0332 
 183   0.0000       0.298606         8.1255 
 184   0.0000       0.299689         8.1549 
 185   0.0000       0.301897         8.2150 
 186   0.0000       0.304392         8.2829 
 187   0.0000       0.310190         8.4407 
 188   0.0000       0.313750         8.5376 
 189   0.0000       0.321213         8.7407 
 190   0.0000       0.321986         8.7617 
 191   0.0000       0.326207         8.8765 
 192   0.0000       0.332686         9.0529 
 193   0.0000       0.336239         9.1495 
 194   0.0000       0.338338         9.2066 
 195   0.0000       0.341535         9.2936 
 196   0.0000       0.342389         9.3169 
 197   0.0000       0.346168         9.4197 
 198   0.0000       0.347756         9.4629 
 199   0.0000       0.352206         9.5840 
 200   0.0000       0.353711         9.6250 
 201   0.0000       0.356910         9.7120 
 202   0.0000       0.360523         9.8103 
 203   0.0000       0.360936         9.8216 
 204   0.0000       0.365177         9.9370 
 205   0.0000       0.368412        10.0250 
 206   0.0000       0.370286        10.0760 
 207   0.0000       0.371773        10.1164 
 208   0.0000       0.375321        10.2130 
 209   0.0000       0.377293        10.2667 
 210   0.0000       0.382599        10.4110 
 211   0.0000       0.386069        10.5055 
 212   0.0000       0.388615        10.5747 
 213   0.0000       0.393040        10.6952 
 214   0.0000       0.394248        10.7280 
 215   0.0000       0.395528        10.7629 
 216   0.0000       0.398889        10.8543 
 217   0.0000       0.400743        10.9048 
 218   0.0000       0.403081        10.9684 
 219   0.0000       0.404211        10.9991 
 220   0.0000       0.415428        11.3044 
 221   0.0000       0.415627        11.3098 
 222   0.0000       0.420743        11.4490 
 223   0.0000       0.424041        11.5387 
 224   0.0000       0.425740        11.5850 
 225   0.0000       0.428710        11.6658 
 226   0.0000       0.429854        11.6969 
 227   0.0000       0.434676        11.8281 
 228   0.0000       0.435564        11.8523 
 229   0.0000       0.437925        11.9165 
 230   0.0000       0.445385        12.1195 
 231   0.0000       0.446983        12.1630 
 232   0.0000       0.450467        12.2578 
 233   0.0000       0.453294        12.3348 
 234   0.0000       0.455812        12.4033 
 235   0.0000       0.457679        12.4541 
 236   0.0000       0.462630        12.5888 
 237   0.0000       0.463564        12.6142 
 238   0.0000       0.464882        12.6501 
 239   0.0000       0.467777        12.7289 
 240   0.0000       0.469233        12.7685 
 241   0.0000       0.471859        12.8399 
 242   0.0000       0.474663        12.9162 
 243   0.0000       0.476040        12.9537 
 244   0.0000       0.481586        13.1046 
 245   0.0000       0.484048        13.1716 
 246   0.0000       0.487269        13.2593 
 247   0.0000       0.488303        13.2874 
 248   0.0000       0.491005        13.3609 
 249   0.0000       0.496344        13.5062 
 250   0.0000       0.499996        13.6056 
 251   0.0000       0.503302        13.6955 
 252   0.0000       0.503771        13.7083 
 253   0.0000       0.509055        13.8521 
 254   0.0000       0.509547        13.8655 
 255   0.0000       0.515695        14.0328 
 256   0.0000       0.520036        14.1509 
 257   0.0000       0.522212        14.2101 
 258   0.0000       0.526710        14.3325 
 259   0.0000       0.533766        14.5245 
 260   0.0000       0.534116        14.5340 
 261   0.0000       0.538941        14.6653 
 262   0.0000       0.543214        14.7816 
 263   0.0000       0.544001        14.8030 
 264   0.0000       0.545715        14.8497 
 265   0.0000       0.550076        14.9683 
 266   0.0000       0.552757        15.0413 
 267   0.0000       0.554482        15.0882 
 268   0.0000       0.557638        15.1741 
 269   0.0000       0.559080        15.2133 
 270   0.0000       0.566781        15.4229 
 271   0.0000       0.567799        15.4506 
 272   0.0000       0.569351        15.4928 
 273   0.0000       0.573696        15.6111 
 274   0.0000       0.575581        15.6624 
 275   0.0000       0.583376        15.8745 
 276   0.0000       0.585472        15.9315 
 277   0.0000       0.588890        16.0245 
 278   0.0000       0.591205        16.0875 
 279   0.0000       0.595682        16.2093 
 280   0.0000       0.598768        16.2933 
 281   0.0000       0.603104        16.4113 
 282   0.0000       0.607507        16.5311 
 283   0.0000       0.612377        16.6636 
 284   0.0000       0.619136        16.8475 
 285   0.0000       0.625427        17.0187 
 286   0.0000       0.629010        17.1162 
 287   0.0000       0.634133        17.2556 
 288   0.0000       0.637676        17.3520 
 289   0.0000       0.638680        17.3794 
 290   0.0000       0.650612        17.7040 
 291   0.0000       0.655418        17.8348 
 292   0.0000       0.658978        17.9317 
 293   0.0000       0.661785        18.0081 
 294   0.0000       0.666335        18.1319 
 295   0.0000       0.669187        18.2095 
 296   0.0000       0.669642        18.2219 
 297   0.0000       0.676189        18.4000 
 298   0.0000       0.680393        18.5144 
 299   0.0000       0.682136        18.5619 
 300   0.0000       0.683004        18.5855 
 301   0.0000       0.691407        18.8141 
 302   0.0000       0.694789        18.9062 
 303   0.0000       0.695151        18.9160 
 304   0.0000       0.696556        18.9542 
 305   0.0000       0.698377        19.0038 
 306   0.0000       0.699461        19.0333 
 307   0.0000       0.706698        19.2302 
 308   0.0000       0.707807        19.2604 
 309   0.0000       0.711877        19.3711 
 310   0.0000       0.716029        19.4841 
 311   0.0000       0.719385        19.5755 
 312   0.0000       0.722995        19.6737 
 313   0.0000       0.727446        19.7948 
 314   0.0000       0.731943        19.9172 
 315   0.0000       0.734952        19.9991 
 316   0.0000       0.737853        20.0780 
 317   0.0000       0.741054        20.1651 
 318   0.0000       0.742544        20.2056 
 319   0.0000       0.747110        20.3299 
 320   0.0000       0.750426        20.4201 
 321   0.0000       0.751648        20.4534 
 322   0.0000       0.761145        20.7118 
 323   0.0000       0.762109        20.7380 
 324   0.0000       0.766596        20.8601 
 325   0.0000       0.770701        20.9718 
 326   0.0000       0.773237        21.0408 
 327   0.0000       0.774911        21.0864 
 328   0.0000       0.776410        21.1272 
 329   0.0000       0.781116        21.2552 
 330   0.0000       0.785741        21.3811 
 331   0.0000       0.788107        21.4455 
 332   0.0000       0.790382        21.5074 
 333   0.0000       0.795341        21.6423 
 334   0.0000       0.795744        21.6533 
 335   0.0000       0.799131        21.7455 
 336   0.0000       0.800723        21.7888 
 337   0.0000       0.806630        21.9495 
 338   0.0000       0.809320        22.0227 
 339   0.0000       0.813849        22.1460 
 340   0.0000       0.817223        22.2378 
 341   0.0000       0.824581        22.4380 
 342   0.0000       0.825998        22.4765 
 343   0.0000       0.828843        22.5540 
 344   0.0000       0.831592        22.6288 
 345   0.0000       0.836654        22.7665 
 346   0.0000       0.841557        22.8999 
 347   0.0000       0.846066        23.0226 
 348   0.0000       0.852634        23.2014 
 349   0.0000       0.856304        23.3012 
 350   0.0000       0.859915        23.3995 
 351   0.0000       0.863123        23.4868 
 352   0.0000       0.867636        23.6096 
 353   0.0000       0.872688        23.7471 
 354   0.0000       0.878698        23.9106 
 355   0.0000       0.883469        24.0404 
 356   0.0000       0.885230        24.0883 
 357   0.0000       0.892850        24.2957 
 358   0.0000       0.898955        24.4618 
 359   0.0000       0.901932        24.5428 
 360   0.0000       0.908849        24.7310 
 361   0.0000       0.912794        24.8384 
 362   0.0000       0.916956        24.9516 
 363   0.0000       0.920101        25.0372 
 364   0.0000       0.923779        25.1373 
 365   0.0000       0.927758        25.2456 
 366   0.0000       0.928562        25.2674 
 367   0.0000       0.935340        25.4519 
 368   0.0000       0.940786        25.6001 
 369   0.0000       0.946386        25.7525 
 370   0.0000       0.948493        25.8098 
 371   0.0000       0.953588        25.9485 
 372   0.0000       0.958857        26.0918 
 373   0.0000       0.961362        26.1600 
 374   0.0000       0.963421        26.2160 
 375   0.0000       0.969232        26.3742 
 376   0.0000       0.973246        26.4834 
 377   0.0000       0.977675        26.6039 
 378   0.0000       0.987585        26.8736 
 379   0.0000       0.990565        26.9546 
 380   0.0000       0.994631        27.0653 
 381   0.0000       0.999061        27.1858 
 382   0.0000       1.008146        27.4331 
 383   0.0000       1.010790        27.5050 
 384   0.0000       1.013590        27.5812 
 385   0.0000       1.022164        27.8145 
 386   0.0000       1.029900        28.0250 
 387   0.0000       1.035044        28.1650 
 388   0.0000       1.042064        28.3560 
 389   0.0000       1.050486        28.5852 
 390   0.0000       1.059001        28.8169 
 391   0.0000       1.060909        28.8688 
 392   0.0000       1.068550        29.0767 
 393   0.0000       1.072238        29.1771 
 394   0.0000       1.077112        29.3097 
 395   0.0000       1.082334        29.4518 
 396   0.0000       1.090313        29.6689 
 397   0.0000       1.102177        29.9918 
 398   0.0000       1.104076        30.0434 
 399   0.0000       1.114271        30.3209 
 400   0.0000       1.117338        30.4043 
 401   0.0000       1.121488        30.5173 
 402   0.0000       1.128628        30.7115 
 403   0.0000       1.131379        30.7864 
 404   0.0000       1.137608        30.9559 
 405   0.0000       1.140725        31.0407 
 406   0.0000       1.149107        31.2688 
 407   0.0000       1.152483        31.3606 
 408   0.0000       1.163725        31.6666 
 409   0.0000       1.168388        31.7935 
 410   0.0000       1.174414        31.9574 
 411   0.0000       1.177621        32.0447 
 412   0.0000       1.183920        32.2161 
 413   0.0000       1.185386        32.2560 
 414   0.0000       1.190895        32.4059 
 415   0.0000       1.193644        32.4807 
 416   0.0000       1.198353        32.6088 
 417   0.0000       1.208075        32.8734 
 418   0.0000       1.215782        33.0831 
 419   0.0000       1.220343        33.2072 
 420   0.0000       1.230844        33.4930 
 421   0.0000       1.233976        33.5782 
 422   0.0000       1.239617        33.7317 
 423   0.0000       1.245241        33.8847 
 424   0.0000       1.250862        34.0377 
 425   0.0000       1.255257        34.1573 
 426   0.0000       1.258618        34.2487 
 427   0.0000       1.265565        34.4378 
 428   0.0000       1.269525        34.5455 
 429   0.0000       1.284356        34.9491 
 430   0.0000       1.293945        35.2100 
 431   0.0000       1.299060        35.3492 
 432   0.0000       1.303704        35.4756 
 433   0.0000       1.305842        35.5338 
 434   0.0000       1.311788        35.6956 
 435   0.0000       1.314151        35.7599 
 436   0.0000       1.319953        35.9178 
 437   0.0000       1.323343        36.0100 
 438   0.0000       1.329408        36.1750 
 439   0.0000       1.332665        36.2636 
 440   0.0000       1.336549        36.3693 
 441   0.0000       1.347512        36.6677 
 442   0.0000       1.350670        36.7536 
 443   0.0000       1.352702        36.8089 
 444   0.0000       1.361497        37.0482 
 445   0.0000       1.366997        37.1979 
 446   0.0000       1.372877        37.3579 
 447   0.0000       1.375184        37.4207 
 448   0.0000       1.382413        37.6174 
 449   0.0000       1.385361        37.6976 
 450   0.0000       1.390747        37.8441 
 451   0.0000       1.395398        37.9707 
 452   0.0000       1.398674        38.0599 
 453   0.0000       1.401324        38.1320 
 454   0.0000       1.410603        38.3845 
 455   0.0000       1.418411        38.5969 
 456   0.0000       1.419787        38.6344 
 457   0.0000       1.425539        38.7909 
 458   0.0000       1.427185        38.8357 
 459   0.0000       1.436596        39.0918 
 460   0.0000       1.442905        39.2634 
 461   0.0000       1.444345        39.3026 
 462   0.0000       1.452257        39.5179 
 463   0.0000       1.455521        39.6067 
 464   0.0000       1.468306        39.9546 
 465   0.0000       1.475789        40.1583 
 466   0.0000       1.480420        40.2843 
 467   0.0000       1.486862        40.4596 
 468   0.0000       1.491098        40.5748 
 469   0.0000       1.491237        40.5786 
 470   0.0000       1.491897        40.5966 
 471   0.0000       1.498531        40.7771 
 472   0.0000       1.505452        40.9654 
 473   0.0000       1.511172        41.1211 
 474   0.0000       1.513038        41.1719 
 475   0.0000       1.516693        41.2713 
 476   0.0000       1.520999        41.3885 
 477   0.0000       1.522523        41.4300 
 478   0.0000       1.523977        41.4695 
 479   0.0000       1.532909        41.7126 
 480   0.0000       1.540534        41.9201 
 481   0.0000       1.544292        42.0223 
 482   0.0000       1.546082        42.0710 
 483   0.0000       1.547476        42.1090 
 484   0.0000       1.558138        42.3991 
 485   0.0000       1.559084        42.4248 
 486   0.0000       1.560379        42.4601 
 487   0.0000       1.566097        42.6157 
 488   0.0000       1.566301        42.6212 
 489   0.0000       1.575271        42.8653 
 490   0.0000       1.578999        42.9668 
 491   0.0000       1.582169        43.0530 
 492   0.0000       1.585000        43.1300 
 493   0.0000       1.593138        43.3515 
 494   0.0000       1.594096        43.3776 
 495   0.0000       1.597413        43.4678 
 496   0.0000       1.602643        43.6101 
 497   0.0000       1.604788        43.6685 
 498   0.0000       1.606523        43.7157 
 499   0.0000       1.608946        43.7816 
 500   0.0000       1.610296        43.8184 
 501   0.0000       1.617127        44.0043 
 502   0.0000       1.622616        44.1536 
 503   0.0000       1.629499        44.3409 
 504   0.0000       1.638130        44.5758 
 505   0.0000       1.638652        44.5900 
 506   0.0000       1.641602        44.6703 
 507   0.0000       1.652634        44.9704 
 508   0.0000       1.655117        45.0380 
 509   0.0000       1.660823        45.1933 
 510   0.0000       1.662772        45.2463 
 511   0.0000       1.666028        45.3349 
 512   0.0000       1.673662        45.5427 
 513   0.0000       1.683824        45.8192 
 514   0.0000       1.687044        45.9068 
 515   0.0000       1.690002        45.9873 
 516   0.0000       1.692763        46.0624 
 517   0.0000       1.695874        46.1471 
 518   0.0000       1.698444        46.2170 
 519   0.0000       1.701627        46.3036 
 520   0.0000       1.711124        46.5620 
 521   0.0000       1.717464        46.7346 
 522   0.0000       1.721614        46.8475 
 523   0.0000       1.730657        47.0936 
 524   0.0000       1.737755        47.2867 
 525   0.0000       1.744220        47.4626 
 526   0.0000       1.752161        47.6787 
 527   0.0000       1.755684        47.7746 
 528   0.0000       1.760184        47.8970 
 529   0.0000       1.762937        47.9719 
 530   0.0000       1.766157        48.0596 
 531   0.0000       1.771013        48.1917 
 532   0.0000       1.776426        48.3390 
 533   0.0000       1.785002        48.5724 
 534   0.0000       1.787096        48.6294 
 535   0.0000       1.787597        48.6430 
 536   0.0000       1.794337        48.8264 
 537   0.0000       1.799146        48.9572 
 538   0.0000       1.801457        49.0201 
 539   0.0000       1.803724        49.0818 
 540   0.0000       1.808244        49.2048 
 541   0.0000       1.813188        49.3394 
 542   0.0000       1.818468        49.4830 
 543   0.0000       1.821879        49.5758 
 544   0.0000       1.832646        49.8688 
 545   0.0000       1.836941        49.9857 
 546   0.0000       1.843770        50.1715 
 547   0.0000       1.849172        50.3185 
 548   0.0000       1.850878        50.3649 
 549   0.0000       1.856414        50.5156 
 550   0.0000       1.861028        50.6411 
 551   0.0000       1.865051        50.7506 
 552   0.0000       1.871146        50.9165 
 553   0.0000       1.875454        51.0337 
 554   0.0000       1.876787        51.0700 
 555   0.0000       1.886550        51.3356 
 556   0.0000       1.897772        51.6410 
 557   0.0000       1.902275        51.7635 
 558   0.0000       1.915020        52.1103 
 559   0.0000       1.918284        52.1992 
 560   0.0000       1.924395        52.3655 
 561   0.0000       1.933860        52.6230 
 562   0.0000       1.939301        52.7711 
 563   0.0000       1.945729        52.9460 
 564   0.0000       1.950605        53.0787 
 565   0.0000       1.958853        53.3031 
 566   0.0000       1.961681        53.3801 
 567   0.0000       1.966656        53.5154 
 568   0.0000       1.969637        53.5965 
 569   0.0000       1.976862        53.7931 
 570   0.0000       1.980066        53.8803 
 571   0.0000       1.992097        54.2077 
 572   0.0000       1.993598        54.2485 
 573   0.0000       2.003510        54.5183 
 574   0.0000       2.007242        54.6198 
 575   0.0000       2.016949        54.8840 
 576   0.0000       2.018629        54.9297 
 577   0.0000       2.021797        55.0159 
 578   0.0000       2.033417        55.3321 
 579   0.0000       2.035742        55.3954 
 580   0.0000       2.044117        55.6232 
 581   0.0000       2.047737        55.7217 
 582   0.0000       2.050460        55.7959 
 583   0.0000       2.055538        55.9340 
 584   0.0000       2.061678        56.1011 
 585   0.0000       2.080113        56.6027 
 586   0.0000       2.085153        56.7399 
 587   0.0000       2.087011        56.7905 
 588   0.0000       2.088490        56.8307 
 589   0.0000       2.095383        57.0183 
 590   0.0000       2.099367        57.1267 
 591   0.0000       2.103577        57.2413 
 592   0.0000       2.112319        57.4791 
 593   0.0000       2.118130        57.6372 
 594   0.0000       2.122006        57.7427 
 595   0.0000       2.127091        57.8811 
 596   0.0000       2.134756        58.0897 
 597   0.0000       2.141029        58.2604 
 598   0.0000       2.142719        58.3063 
 599   0.0000       2.146429        58.4073 
 600   0.0000       2.151517        58.5457 
 601   0.0000       2.161614        58.8205 
 602   0.0000       2.167123        58.9704 
 603   0.0000       2.175377        59.1950 
 604   0.0000       2.177295        59.2472 
 605   0.0000       2.184636        59.4470 
 606   0.0000       2.192543        59.6621 
 607   0.0000       2.194826        59.7242 
 608   0.0000       2.196388        59.7668 
 609   0.0000       2.196708        59.7755 
 610   0.0000       2.209332        60.1190 
 611   0.0000       2.212967        60.2179 
 612   0.0000       2.215918        60.2982 
 613   0.0000       2.232321        60.7445 
 614   0.0000       2.237710        60.8912 
 615   0.0000       2.239940        60.9519 
 616   0.0000       2.251512        61.2668 
 617   0.0000       2.252921        61.3051 
 618   0.0000       2.258418        61.4547 
 619   0.0000       2.263524        61.5936 
 620   0.0000       2.268751        61.7359 
 621   0.0000       2.272271        61.8316 
 622   0.0000       2.285185        62.1830 
 623   0.0000       2.288580        62.2754 
 624   0.0000       2.298808        62.5538 
 625   0.0000       2.301856        62.6367 
 626   0.0000       2.308831        62.8265 
 627   0.0000       2.318364        63.0859 
 628   0.0000       2.322016        63.1853 
 629   0.0000       2.323722        63.2317 
 630   0.0000       2.328889        63.3723 
 631   0.0000       2.342305        63.7374 
 632   0.0000       2.343679        63.7747 
 633   0.0000       2.351356        63.9837 
 634   0.0000       2.354031        64.0565 
 635   0.0000       2.356707        64.1293 
 636   0.0000       2.372083        64.5477 
 637   0.0000       2.384338        64.8811 
 638   0.0000       2.394348        65.1535 
 639   0.0000       2.400190        65.3125 
 640   0.0000       2.407427        65.5094 
 641   0.0000       2.411138        65.6104 
 642   0.0000       2.413346        65.6705 
 643   0.0000       2.425776        66.0087 
 644   0.0000       2.426227        66.0210 
 645   0.0000       2.434217        66.2384 
 646   0.0000       2.442312        66.4587 
 647   0.0000       2.444769        66.5255 
 648   0.0000       2.445640        66.5493 
 649   0.0000       2.455773        66.8250 
 650   0.0000       2.468406        67.1687 
 651   0.0000       2.470057        67.2137 
 652   0.0000       2.474282        67.3286 
 653   0.0000       2.482691        67.5575 
 654   0.0000       2.500404        68.0394 
 655   0.0000       2.514420        68.4208 
 656   0.0000       2.517546        68.5059 
 657   0.0000       2.530092        68.8473 
 658   0.0000       2.533727        68.9462 
 659   0.0000       2.538800        69.0843 
 660   0.0000       2.544815        69.2479 
 661   0.0000       2.552909        69.4682 
 662   0.0000       2.563565        69.7582 
 663   0.0000       2.570862        69.9567 
 664   0.0000       2.577812        70.1458 
 665   0.0000       2.583018        70.2875 
 666   0.0000       2.598514        70.7091 
 667   0.0000       2.602893        70.8283 
 668   0.0000       2.615685        71.1764 
 669   0.0000       2.622754        71.3688 
 670   0.0000       2.628520        71.5257 
 671   0.0000       2.635002        71.7021 
 672   0.0000       2.637264        71.7636 
 673   0.0000       2.646699        72.0204 
 674   0.0000       2.651877        72.1613 
 675   0.0000       2.662719        72.4563 
 676   0.0000       2.669239        72.6337 
[...]
 144   8.487     146.1   0.027787   0.026850  -11.454428  -10.053711     0.07 (  81-> 108)    0.06 (  80-> 106)    0.04 (  80-> 100)
 145   8.516     145.6   0.042317   0.045073  21.164012  19.090657     0.04 (  74->  92)    0.03 (  79-> 102)    0.03 (  74->  90)
 146   8.528     145.4   0.038706   0.038677  -15.278621  -13.491694     0.17 (  62->  82)    0.09 (  79-> 102)    0.08 (  63->  82)
 147   8.540     145.2   0.011661   0.012499  13.318699  14.087118     0.07 (  62->  82)    0.06 (  70->  89)    0.06 (  73->  83)
 148   8.541     145.2   0.005745   0.005498  21.961097  22.085078     0.05 (  78->  94)    0.04 (  62->  82)    0.03 (  80-> 106)
 149   8.566     144.7   0.003021   0.002516  -0.917287   0.250237     0.13 (  62->  82)    0.08 (  63->  82)    0.05 (  61->  82)
 150   8.584     144.4   0.023628   0.024048   8.413314   9.655000     0.10 (  61->  82)    0.10 (  73->  83)    0.08 (  79-> 102)
 151   8.595     144.3   0.038745   0.038643  14.634592  14.641733     0.24 (  75->  83)    0.04 (  74->  92)    0.03 (  39->  82)
 152   8.614     143.9   0.100750   0.092206  -32.947472  -30.680890     0.14 (  81-> 112)    0.03 (  78-> 105)    0.03 (  77-> 105)
 153   8.620     143.8   0.002939   0.002975  -12.549221  -11.759948     0.22 (  61->  82)    0.14 (  39->  82)    0.11 (  44->  82)
 154   8.632     143.6   0.284937   0.269879   7.951585   4.412823     0.05 (  73->  83)    0.04 (  81-> 112)    0.03 (  74->  92)
 155   8.642     143.5   0.046651   0.039828   2.692893   1.648716     0.07 (  74->  92)    0.04 (  63->  87)    0.04 (  74->  90)
 156   8.672     143.0   0.034816   0.034395   1.073623   0.874898     0.18 (  75->  83)    0.08 (  61->  82)    0.07 (  73->  83)
 157   8.696     142.6   0.041776   0.039939  -12.430512  -12.069104     0.12 (  77->  87)    0.10 (  78->  87)    0.06 (  57->  83)
 158   8.706     142.4   0.035808   0.033862   0.532318   2.087976     0.18 (  61->  82)    0.12 (  41->  82)    0.05 (  66->  87)
 159   8.717     142.2   0.007319   0.006861   2.280299   0.782679     0.11 (  74->  92)    0.06 (  57->  83)    0.05 (  74->  90)
 160   8.730     142.0   0.003177   0.003425  -5.978001  -7.046450     0.06 (  74->  92)    0.04 (  78->  95)    0.04 (  78-> 110)
 161   8.733     142.0   0.014396   0.013686  -12.536372  -11.760759     0.12 (  64->  90)    0.04 (  74->  92)    0.04 (  66->  90)
 162   8.745     141.8   0.036917   0.034062  60.362407  57.808093     0.07 (  61->  82)    0.03 (  78->  97)    0.03 (  77->  94)
 163   8.753     141.7   0.028240   0.025544  27.220421  24.686930     0.06 (  78->  91)    0.06 (  41->  82)    0.05 (  61->  82)
 164   8.762     141.5   0.004605   0.004233  -1.734105  -0.048202     0.16 (  79-> 104)    0.05 (  79-> 101)    0.05 (  79-> 106)
 165   8.781     141.2   0.007803   0.007831  13.204631  12.943581     0.08 (  80-> 108)    0.06 (  80-> 112)    0.06 (  81-> 116)
 166   8.784     141.1   0.066966   0.063749  -18.893704  -20.601405     0.03 (  80-> 108)    0.03 (  71->  85)    0.03 (  41->  82)
 167   8.820     140.6   0.043579   0.040420  -3.299561  -3.138812     0.09 (  75-> 101)    0.06 (  80-> 108)    0.05 (  75-> 104)
 168   8.830     140.4   0.002760   0.002485   6.253325   7.228442     0.11 (  80-> 108)    0.04 (  81-> 114)    0.04 (  75-> 101)
 169   8.862     139.9   0.010310   0.010075  20.056929  19.557232     0.09 (  71->  83)    0.05 (  57->  83)    0.04 (  75-> 101)
 170   8.870     139.8   0.075601   0.065419  -49.325824  -46.595515     0.05 (  58->  84)    0.04 (  41->  82)    0.03 (  63->  85)
 171   8.910     139.1   0.013974   0.013326  -17.735738  -17.783546     0.04 (  73->  89)    0.03 (  58->  84)    0.03 (  68->  87)
 172   8.915     139.1   0.025485   0.022627  -9.464267  -9.481982     0.05 (  67->  87)    0.03 (  77->  89)    0.03 (  71->  86)
 173   8.931     138.8   0.009954   0.009042  -2.510357  -2.996292     0.08 (  69->  88)    0.08 (  61->  88)    0.05 (  74->  93)
 174   8.937     138.7   0.021985   0.019562  23.201360  21.899803     0.07 (  81->  91)    0.03 (  63->  85)    0.03 (  78->  91)
 175   8.942     138.7   0.007319   0.007167  11.189372  11.018909     0.53 (  74->  84)    0.06 (  74->  93)    0.02 (  72->  84)
 176   8.946     138.6   0.014943   0.013253  -19.070369  -18.438829     0.21 (  74->  84)    0.06 (  74->  93)    0.03 (  80-> 106)
 177   8.955     138.4   0.022092   0.019886  37.515332  35.872688     0.08 (  78->  89)    0.07 (  77->  89)    0.06 (  74->  84)
 178   8.991     137.9   0.004014   0.004428  -5.913315  -5.895643     0.14 (  79-> 113)    0.12 (  79-> 104)    0.08 (  81->  91)
 179   9.027     137.3   0.014955   0.013626  22.991465  22.477665     0.10 (  80-> 112)    0.07 (  81-> 116)    0.06 (  81->  91)
 180   9.042     137.1   0.043039   0.040219  10.620394   9.258897     0.25 (  81->  91)    0.03 (  77->  91)    0.02 (  77->  90)
 181   9.047     137.0   0.033392   0.029922  -38.104311  -35.037851     0.04 (  63->  87)    0.04 (  81->  91)    0.04 (  65->  89)
 182   9.075     136.6   0.037624   0.034862  -13.038247  -13.485292     0.12 (  81->  91)    0.03 (  72->  90)    0.03 (  78-> 109)
 183   9.082     136.5   0.003073   0.002617   6.560006   5.208555     0.08 (  67->  87)    0.07 (  67->  89)    0.06 (  79->  90)
 184   9.092     136.4   0.002991   0.002486   6.915589   5.722899     0.15 (  81->  91)    0.07 (  79->  90)    0.03 (  67->  89)
 185   9.099     136.3   0.001860   0.001466  -16.771077  -13.441401     0.06 (  52->  83)    0.06 (  70->  83)    0.05 (  52->  85)
 186   9.130     135.8   0.036528   0.033527   8.793187   8.011048     0.04 (  77->  92)    0.03 (  78->  94)    0.03 (  78-> 111)
 187   9.141     135.6   0.031623   0.029206  18.022536  17.450191     0.05 (  80-> 116)    0.05 (  80-> 111)    0.04 (  74->  93)
 188   9.154     135.4   0.004240   0.003900   1.491880   1.426225     0.44 (  59->  82)    0.36 (  60->  82)    0.04 (  57->  82)
 189   9.167     135.3   0.097972   0.091430  21.071535  19.661200     0.12 (  58->  84)    0.03 (  79->  92)    0.03 (  65->  89)
 190   9.184     135.0   0.020990   0.019019  -10.965723  -10.321564     0.10 (  79->  90)    0.05 (  81-> 114)    0.03 (  79->  92)
 191   9.191     134.9   0.015140   0.014079  31.689994  30.135164     0.16 (  79->  90)    0.03 (  79->  92)    0.03 (  78->  90)
 192   9.203     134.7   0.020919   0.018862  -16.030435  -15.086856     0.14 (  75-> 102)    0.05 (  65->  89)    0.05 (  75->  97)
 193   9.216     134.5   0.034164   0.030601   7.706730  11.608459     0.10 (  79->  90)    0.09 (  80-> 116)    0.06 (  80-> 112)
 194   9.222     134.4   0.009765   0.008558   2.369983   2.240136     0.16 (  75-> 102)    0.05 (  59->  88)    0.05 (  64->  90)
 195   9.227     134.4   0.008918   0.008219  -15.268547  -14.895843     0.09 (  80-> 112)    0.08 (  75-> 102)    0.07 (  80-> 116)
 196   9.236     134.2   0.012394   0.011694  -16.066949  -15.397956     0.07 (  65->  89)    0.06 (  75-> 102)    0.04 (  65->  84)
 197   9.263     133.9   0.017888   0.015498  70.288290  66.458200     0.13 (  61->  90)    0.05 (  69->  88)    0.05 (  72->  90)
 198   9.278     133.6   0.011680   0.010363  55.126983  51.492468     0.16 (  61->  90)    0.06 (  62->  90)    0.06 (  60->  90)
 199   9.293     133.4   0.041148   0.034238  80.148609  74.535011     0.04 (  63->  87)    0.03 (  79-> 110)    0.03 (  56->  86)
 200   9.299     133.3   0.006579   0.005427   8.526361   8.759738     0.27 (  60->  82)    0.11 (  59->  82)    0.06 (  44->  82)
 201   9.307     133.2   0.005009   0.004566  -5.987806  -5.344871     0.10 (  79-> 113)    0.04 (  79-> 111)    0.04 (  79-> 110)
 202   9.334     132.8   0.036802   0.032604  -35.480822  -29.313330     0.25 (  59->  82)    0.14 (  60->  82)    0.05 (  44->  82)
 203   9.348     132.6   0.053223   0.047363  -19.639142  -14.817020     0.10 (  76->  99)    0.07 (  76->  96)    0.04 (  76->  98)
 204   9.352     132.6   0.008571   0.008305  -23.788894  -23.305243     0.19 (  76->  99)    0.09 (  76->  96)    0.07 (  76->  98)
 205   9.366     132.4   0.059479   0.055532  -21.501917  -20.509769     0.52 (  75->  91)    0.18 (  80->  91)    0.04 (  75-> 104)
 206   9.369     132.3   0.013107   0.011104  -21.687272  -19.806895     0.30 (  69->  84)    0.17 (  57->  82)    0.05 (  72->  84)
 207   9.376     132.2   0.005228   0.004504  -16.020675  -15.365165     0.47 (  57->  82)    0.05 (  69->  84)    0.05 (  58->  82)
 208   9.387     132.1   0.022228   0.020463  -21.341152  -20.160794     0.64 (  80->  91)    0.11 (  75->  91)    0.05 (  69->  84)
 209   9.403     131.9   0.001354   0.001327  -4.279195  -4.881288     0.12 (  59->  88)    0.06 (  64->  92)    0.03 (  78->  95)
 210   9.410     131.8   0.021726   0.020031   8.385329   7.757463     0.09 (  79->  92)    0.07 (  72->  92)    0.05 (  57->  88)
 211   9.414     131.7   0.009077   0.008224  -36.955083  -35.446001     0.06 (  69->  84)    0.05 (  77->  95)    0.04 (  80-> 114)
 212   9.422     131.6   0.000242   0.000297  -2.032989  -0.174983     0.09 (  74->  94)    0.05 (  62->  88)    0.05 (  69->  84)
 213   9.459     131.1   0.019286   0.016285  11.088520  10.263755     0.05 (  78->  90)    0.04 (  77->  94)    0.04 (  77->  90)
 214   9.480     130.8   0.013828   0.012107  -13.815606  -13.903718     0.10 (  74->  85)    0.07 (  76->  97)    0.07 (  79->  92)
 215   9.489     130.7   0.004213   0.004012   1.005273   1.602278     0.04 (  79-> 113)    0.04 (  74->  85)    0.04 (  74->  86)
 216   9.501     130.5   0.047415   0.044897  -49.939816  -48.048154     0.10 (  74->  86)    0.09 (  74->  85)    0.08 (  79->  92)
 217   9.510     130.4   0.039789   0.036304  -20.541029  -19.240627     0.25 (  74->  86)    0.14 (  74->  85)    0.08 (  79->  92)
 218   9.540     130.0   0.014964   0.014389  19.463068  20.702042     0.11 (  39->  82)    0.09 (  56->  84)    0.07 (  56->  89)
 219   9.553     129.8   0.017237   0.013894  -17.810559  -16.056399     0.30 (  76->  96)    0.05 (  76->  97)    0.05 (  76->  99)
 220   9.556     129.7   0.012722   0.011630  10.656407  10.617927     0.25 (  72->  84)    0.06 (  71->  84)    0.05 (  69->  84)
 221   9.557     129.7   0.020250   0.016555  18.796433  15.042923     0.10 (  76->  96)    0.09 (  72->  84)    0.03 (  69->  84)
 222   9.565     129.6   0.003497   0.002294  -4.817681  -4.274884     0.04 (  77->  94)    0.03 (  81-> 118)    0.03 (  70->  83)
 223   9.573     129.5   0.013596   0.012134  18.346633  17.398548     0.08 (  72->  84)    0.04 (  78->  92)    0.04 (  77->  92)
 224   9.596     129.2   0.010421   0.008892  11.891517  10.518149     0.12 (  74->  87)    0.05 (  69->  84)    0.04 (  74->  86)
 225   9.608     129.0   0.027750   0.023828  15.961755  16.011067     0.04 (  80-> 117)    0.03 (  70->  83)    0.03 (  73->  97)
 226   9.620     128.9   0.002125   0.001960  -11.541554  -11.821702     0.04 (  80-> 117)    0.03 (  74->  87)    0.03 (  74->  98)
 227   9.645     128.6   0.000429   0.000206   3.797599   3.026051     0.07 (  77->  99)    0.05 (  78->  98)    0.04 (  77-> 111)
 228   9.651     128.5   0.024312   0.021582   8.138913   8.209492     0.04 (  77-> 110)    0.03 (  78-> 110)    0.03 (  81-> 116)
 229   9.655     128.4   0.015314   0.013568  -1.127887  -3.377044     0.08 (  73->  97)    0.03 (  67->  83)    0.03 (  39->  82)
 230   9.664     128.3   0.027516   0.023010  -17.129690  -15.654822     0.12 (  70->  83)    0.10 (  67->  83)    0.04 (  73->  99)
 231   9.691     127.9   0.003419   0.002399  12.731750  10.978335     0.05 (  58->  87)    0.03 (  81->  98)    0.02 (  81-> 120)
 232   9.694     127.9   0.029588   0.027341  -14.734230  -12.383412     0.06 (  65->  85)    0.04 (  76->  88)    0.04 (  65->  83)
 233   9.707     127.7   0.012694   0.011305  -43.847983  -41.649294     0.11 (  58->  87)    0.04 (  77-> 111)    0.03 (  81->  96)
 234   9.713     127.6   0.011117   0.009343  26.363052  24.185548     0.05 (  69->  89)    0.04 (  74->  87)    0.03 (  58->  87)
 235   9.720     127.6   0.000613   0.000690   0.078316  -0.394581     0.06 (  68->  84)    0.05 (  66->  84)    0.05 (  67->  84)
 236   9.727     127.5   0.001808   0.001792   1.545400   1.537210     0.06 (  76->  88)    0.05 (  68->  84)    0.04 (  67->  84)
 237   9.748     127.2   0.012027   0.009675   6.610430   5.501309     0.09 (  74->  87)    0.05 (  81-> 118)    0.04 (  81-> 116)
 238   9.761     127.0   0.010561   0.008689   4.368970   4.247100     0.09 (  65->  85)    0.09 (  79-> 115)    0.07 (  79->  92)
 239   9.765     127.0   0.005801   0.005312   5.369671   5.042552     0.12 (  65->  85)    0.07 (  65->  86)    0.06 (  74->  87)
 240   9.779     126.8   0.003947   0.003748   9.577176   9.696892     0.12 (  81-> 114)    0.07 (  78-> 105)    0.06 (  78-> 103)
 241   9.780     126.8   0.002923   0.002778  -1.134055  -1.128372     0.14 (  76->  88)    0.10 (  65->  86)    0.04 (  75-> 104)
 242   9.784     126.7   0.032642   0.030331  -2.721694  -3.867239     0.09 (  65->  86)    0.04 (  79-> 110)    0.04 (  65->  85)
 243   9.810     126.4   0.002193   0.002269   0.375541   0.840372     0.28 (  76->  88)    0.07 (  76->  89)    0.06 (  65->  86)
 244   9.813     126.3   0.002453   0.002162   0.450546   0.941412     0.07 (  72->  92)    0.06 (  81-> 117)    0.05 (  54->  82)
 245   9.819     126.3   0.007497   0.007109  -2.329389  -2.306776     0.07 (  54->  82)    0.05 (  72->  92)    0.04 (  74->  87)
 246   9.827     126.2   0.008971   0.007514  11.562174  10.305004     0.06 (  75->  88)    0.03 (  51->  83)    0.03 (  54->  82)
 247   9.834     126.1   0.002685   0.002261   3.983018   3.460901     0.03 (  75->  88)    0.02 (  69->  87)    0.02 (  49->  83)
 248   9.845     125.9   0.016148   0.014207   1.803482  -2.224154     0.07 (  75->  88)    0.05 (  76-> 104)    0.05 (  76-> 101)
 249   9.858     125.8   0.026823   0.026200   1.291270   2.835675     0.09 (  75-> 104)    0.07 (  65->  86)    0.05 (  65->  83)
 250   9.866     125.7   0.028139   0.026102   6.295487   5.656007     0.05 (  75-> 104)    0.04 (  74->  94)    0.04 (  74->  87)
 251   9.872     125.6   0.049998   0.043947  -5.276381  -6.029556     0.07 (  75-> 104)    0.03 (  76-> 104)    0.03 (  65->  86)
 252   9.885     125.4   0.026154   0.021936   8.181922   7.543655     0.05 (  54->  82)    0.04 (  53->  82)    0.03 (  74->  94)
 253   9.895     125.3   0.000460   0.000446   1.403410   1.849123     0.10 (  53->  82)    0.09 (  40->  82)    0.09 (  54->  82)
 254   9.902     125.2   0.028200   0.026249  -8.170388  -6.974426     0.08 (  81->  96)    0.04 (  81->  97)    0.03 (  77-> 103)
 255   9.919     125.0   0.051999   0.045324  -18.240142  -17.264408     0.04 (  64->  85)    0.04 (  74->  87)    0.03 (  74->  89)
 256   9.928     124.9   0.014987   0.013485  19.812311  18.870862     0.04 (  76-> 104)    0.03 (  62->  90)    0.03 (  63->  85)
 257   9.943     124.7   0.020006   0.016962  -22.457955  -20.924816     0.11 (  75->  88)    0.04 (  71->  97)    0.03 (  75->  89)
 258   9.963     124.5   0.009371   0.008732  -9.044394  -8.603125     0.04 (  68->  83)    0.04 (  70->  83)    0.03 (  67->  83)
 259   9.967     124.4   0.025423   0.023228  28.232886  29.152623     0.06 (  54->  87)    0.04 (  79->  94)    0.04 (  47->  84)
 260   9.978     124.3   0.027838   0.024059  13.567222  12.324441     0.09 (  67->  91)    0.06 (  81->  96)    0.04 (  68->  91)
 261   9.993     124.1   0.051402   0.043960  10.133223   8.899253     0.04 (  75->  88)    0.04 (  63->  89)    0.03 (  67->  91)
 262   9.996     124.0   0.013257   0.011257   1.255567   1.399610     0.05 (  80->  97)    0.04 (  80-> 110)    0.03 (  80-> 118)

sTD-DFT done

Total run time:       52.534 sec

           *** ORCA-CIS/TD-DFT FINISHED WITHOUT ERROR ***


-------------------------------------------------------------------------------
                          DFT DISPERSION CORRECTION                            
                                                                               
                              DFTD3 V3.1  Rev 1                                
                              USING zero damping                               
-------------------------------------------------------------------------------
The omegaB97X-D3 functional is recognized. Fit by Chai et al.
Active option DFTDOPT                   ...         3   

molecular C6(AA) [au] = 39712.035650 


            DFT-D V3
 parameters
 s6 scaling factor         :     1.0000 
 rs6 scaling factor        :     1.2810 
 s8 scaling factor         :     1.0000 
 rs8 scaling factor        :     1.0940 
 Damping factor alpha6     :    14.0000 
 Damping factor alpha8     :    16.0000 
 ad hoc parameters k1-k3   :    16.0000     1.3333    -4.0000 

 Edisp/kcal,au: -14.258279365032  -0.022722012071 
 E6   /kcal   :  -6.758726794 
 E8   /kcal   :  -7.499552571 
 % E8         :  52.597879304 

-------------------------   ----------------
Dispersion correction           -0.022722012
-------------------------   ----------------


-------------------------   --------------------
FINAL SINGLE POINT ENERGY     -1930.449218897555
-------------------------   --------------------


                            ***************************************
                            *     ORCA property calculations      *
                            ***************************************

                                    ---------------------
                                    Active property flags
                                    ---------------------
   (+) Dipole Moment
   (+) Quadrupole Moment


------------------------------------------------------------------------------
                       ORCA ELECTRIC PROPERTIES CALCULATION
------------------------------------------------------------------------------

Dipole Moment Calculation                       ... on
Quadrupole Moment Calculation                   ... on
Polarizability Calculation                      ... off
GBWName                                         ... total_job2.gbw
Electron density file                           ... total_job2.scfp.tmp

-------------
DIPOLE MOMENT
-------------
                                X             Y             Z
Electronic contribution:    -30.12401       8.07666       7.80985
Nuclear contribution   :     31.71334      -8.89803      -8.34893
                        -----------------------------------------
Total Dipole Moment    :      1.58933      -0.82137      -0.53908
                        -----------------------------------------
Magnitude (a.u.)       :      1.86848
Magnitude (Debye)      :      4.74930


------------------------
QUADRUPOLE MOMENT (A.U.)
------------------------

                XX           YY           ZZ           XY           XZ           YZ
  NUC     24409.80337   1506.40120   3114.01689  -3361.73888    333.09136    656.76966
  EL     -24532.73681  -1663.48962  -3257.04938   3364.93313   -316.78755   -655.23099
  TOT      -122.93344   -157.08842   -143.03249      3.19425     16.30380      1.53866

--------------------------------------------------------------------------
[[17722,1],3]: A high-performance Open MPI point-to-point messaging module
was unable to find any relevant network interfaces:

Module: OpenFabrics (openib)
  Host: cx1-136-1-3

Another transport will be used instead, although this may result in
lower performance.
--------------------------------------------------------------------------

Timings for individual modules:

Sum of individual times         ...      234.790 sec (=   3.913 min)
GTO integral calculation        ...        6.942 sec (=   0.116 min)   3.0 %
SCF iterations                  ...      171.462 sec (=   2.858 min)  73.0 %
CIS module                      ...       56.386 sec (=   0.940 min)  24.0 %



                             ****ORCA TERMINATED NORMALLY****
TOTAL RUN TIME: 0 days 0 hours 14 minutes 58 seconds 29 msec
