
                                 *****************
                                 * O   R   C   A *
                                 *****************

           --- An Ab Initio, DFT and Semiempirical electronic structure package ---

                  #######################################################
                  #                        -***-                        #
                  #  Department of molecular theory and spectroscopy    #
                  #              Directorship: Frank Neese              #
                  # Max Planck Institute for Chemical Energy Conversion #
                  #                  D-45470 Muelheim/Ruhr              #
                  #                       Germany                       #
                  #                                                     #
                  #                  All rights reserved                #
                  #                        -***-                        #
                  #######################################################


                         Program Version 4.0.0 -  RELEASE  -


 With contributions from (in alphabetic order):
   Daniel Aravena         : Magnetic Properties
   Michael Atanasov       : Ab Initio Ligand Field Theory
   Ute Becker             : Parallelization
   Martin Brehm           : Molecular dynamics
   Dmytro Bykov           : SCF Hessian
   Vijay G. Chilkuri      : MRCI spin determinant printing
   Dipayan Datta          : RHF DLPNO-CCSD density
   Achintya Kumar Dutta   : EOM-CC, STEOM-CC
   Dmitry Ganyushin       : Spin-Orbit,Spin-Spin,Magnetic field MRCI
   Yang Guo               : DLPNO-NEVPT2, CIM, IAO-localization
   Andreas Hansen         : Spin unrestricted coupled pair/coupled cluster methods
   Lee Huntington         : MR-EOM, pCC
   Robert Izsak           : Overlap fitted RIJCOSX, COSX-SCS-MP3, EOM
   Christian Kollmar      : KDIIS, OOCD, Brueckner-CCSD(T), CCSD density
   Simone Kossmann        : Meta GGA functionals, TD-DFT gradient, OOMP2, MP2 Hessian
   Martin Krupicka        : AUTO-CI
   Dagmar Lenk            : GEPOL surface
   Dimitrios Liakos       : Extrapolation schemes; parallel MDCI
   Dimitrios Manganas     : ROCIS; embedding schemes
   Dimitrios Pantazis     : SARC Basis sets
   Taras Petrenko         : DFT Hessian,TD-DFT gradient, ASA, ECA, R-Raman, ABS, FL, XAS/XES, NRVS
   Peter Pinski           : DLPNO-MP2
   Christoph Reimann      : Effective Core Potentials
   Marius Retegan         : Local ZFS, SOC
   Christoph Riplinger    : Optimizer, TS searches, QM/MM, DLPNO-CCSD(T), (RO)-DLPNO pert. Triples
   Tobias Risthaus        : Range-separated hybrids, TD-DFT gradient, RPA, STAB
   Michael Roemelt        : Restricted open shell CIS
   Masaaki Saitow         : Open-shell DLPNO
   Barbara Sandhoefer     : DKH picture change effects
   Kantharuban Sivalingam : CASSCF convergence, NEVPT2, FIC-MRCI
   Georgi Stoychev        : AutoAux
   Boris Wezisla          : Elementary symmetry handling
   Frank Wennmohs         : Technical directorship


 We gratefully acknowledge several colleagues who have allowed us to
 interface, adapt or use parts of their codes:
   Stefan Grimme, W. Hujo, H. Kruse,             : VdW corrections, initial TS optimization,
                  C. Bannwarth                     DFT functionals, gCP, sTDA/sTD-DF
   Ed Valeev                                     : LibInt (2-el integral package), F12 methods
   Garnet Chan, S. Sharma, J. Yang, R. Olivares  : DMRG
   Ulf Ekstrom                                   : XCFun DFT Library
   Mihaly Kallay                                 : mrcc  (arbitrary order and MRCC methods)
   Jiri Pittner, Ondrej Demel                    : Mk-CCSD
   Frank Weinhold                                : gennbo (NPA and NBO analysis)
   Christopher J. Cramer and Donald G. Truhlar   : smd solvation model


 Your calculation uses the libint2 library for the computation of 2-el integrals
 For citations please refer to: http://libint.valeyev.net

 This ORCA versions uses:
   CBLAS   interface :  Fast vector & matrix operations
   LAPACKE interface :  Fast linear algebra routines
   SCALAPACK package :  Parallel linear algebra routines


Your calculation utilizes the atom-pairwise dispersion correction
with the zero-damping scheme (D30)
Cite in your paper:
S.Grimme, J.Antony, S.Ehrlich and H.Krieg, J.Chem.Phys., 132, (2010), 154104 
   

XCFun DFT library Copyright 2009-2010 Ulf Ekstrom and contributors.
See http://admol.org/xcfun for more information. This is free soft-
ware; see the source code for copying conditions. There is ABSOLUTELY
NO WARRANTY; not even for MERCHANTABILITY or FITNESS FOR A PARTICULAR
PURPOSE. For details see the documentation. Scientific users of this 
library should cite U. Ekstrom, L. Visscher, R. Bast, A. J. Thorvald-
sen and K. Ruud; J.Chem.Theor.Comp. 2010, DOI: 10.1021/ct100117s
XCFun Version 0.99 
Your calculation utilizes the basis: def2-TZVP
   F. Weigend and R. Ahlrichs, Phys. Chem. Chem. Phys. 7, 3297 (2005).

Your calculation utilizes the auxiliary basis: def2/J
   F. Weigend, Phys. Chem. Chem. Phys. 8, 1057 (2006).

================================================================================
                                        WARNINGS
                       Please study these warnings very carefully!
================================================================================

Warning: TCutStore was < 0. Adjusted to Thresh (uncritical)
INFO   : Checking CIS options ...

WARNING: CIS/ROCIS methods need fully converged wavefunctions
  ===> : Setting SCFConvForced true
         You can overwrite this default with %scf ConvForced false 


INFO   : the flag for use of LIBINT has been found!

Your calculation utilizes the atom-pairwise dispersion correction
with the zero-damping scheme (D30)
Cite in your paper:
S.Grimme, J.Antony, S.Ehrlich and H.Krieg, J.Chem.Phys., 132, (2010), 154104 
   

XCFun DFT library Copyright 2009-2010 Ulf Ekstrom and contributors.
See http://admol.org/xcfun for more information. This is free soft-
ware; see the source code for copying conditions. There is ABSOLUTELY
NO WARRANTY; not even for MERCHANTABILITY or FITNESS FOR A PARTICULAR
PURPOSE. For details see the documentation. Scientific users of this 
library should cite U. Ekstrom, L. Visscher, R. Bast, A. J. Thorvald-
sen and K. Ruud; J.Chem.Theor.Comp. 2010, DOI: 10.1021/ct100117s
XCFun Version 0.99 
Your calculation utilizes the basis: def2-TZVP
   F. Weigend and R. Ahlrichs, Phys. Chem. Chem. Phys. 7, 3297 (2005).

Your calculation utilizes the auxiliary basis: def2/J
   F. Weigend, Phys. Chem. Chem. Phys. 8, 1057 (2006).

================================================================================
                                        WARNINGS
                       Please study these warnings very carefully!
================================================================================

INFO   : Checking CIS options ...

INFO   : the flag for use of LIBINT has been found!

================================================================================
                                       INPUT FILE
================================================================================
NAME = total.inp
|  1> # 
|  2> !wB97X-D3 def2-TZVP def2/J RIJCOSX Grid5 FinalGrid6 TightSCF
|  3> %pal 
|  4>  nprocs 24
|  5> end
|  6> %tddft
|  7>   Mode sTDDFT
|  8>   nroots 2
|  9>   Ethresh 10.0
| 10>   maxcore 5000
| 11>   triplets true
| 12> end
| 13> * xyz 0 1 
| 14> C -4.74025973 -2.56662602 1.36541506
| 15> C -4.02149239 -1.52193690 0.79016818
| 16> C -4.71819871 -0.40849145 0.28299709
| 17> C -6.13737713 -0.39242597 0.38985826
| 18> C -6.86461690 -1.44703978 0.96272076
| 19> C -6.14355238 -2.53501150 1.44790419
| 20> C -4.33561146 0.84746207 -0.34357640
| 21> C -5.55032443 1.56282528 -0.56342564
| 22> N -6.61668903 0.79559306 -0.13347942
| 23> C -5.59268239 2.85270913 -1.11262527
| 24> C -4.37659302 3.45052472 -1.43674405
| 25> C -3.16721530 2.77533089 -1.23118007
| 26> C -3.10884217 1.47000445 -0.70543405
| 27> H -2.23899665 3.26818323 -1.51133350
| 28> H -7.58933178 1.07553242 -0.16439576
| 29> H -4.36221568 4.45173066 -1.85764205
| 30> H -2.93814005 -1.57286031 0.73318300
| 31> H -7.94874607 -1.41166879 1.02888995
| 32> H -6.67206910 -3.37076906 1.89882484
| 33> H -4.20717288 -3.42857503 1.75726193
| 34> S 2.82111317 -1.46524299 -0.25649505
| 35> C 4.31974501 -0.52405930 -0.07791353
| 36> N 4.11320440 0.79033108 -0.04199492
| 37> N 2.80054434 1.13676424 -0.14922894
| 38> C 1.98164832 0.09827878 -0.26906297
| 39> C 0.54818657 0.20997907 -0.39680086
| 40> N -0.26416495 -0.83232729 -0.52129756
| 41> N -1.58107930 -0.48147685 -0.62658407
| 42> C -1.79836443 0.82446349 -0.57898435
| 43> S -0.29478332 1.76467454 -0.40581414
| 44> C 5.61358145 -1.14929117 0.01597054
| 45> S 5.79397455 -2.88692972 -0.04063633
| 46> C 7.51883040 -2.82652822 0.12240526
| 47> C 7.95672733 -1.50584520 0.21891019
| 48> C 6.87845714 -0.54448952 0.15916620
| 49> N 9.27245080 -1.10479219 0.35829963
| 50> C 9.45912272 0.20237248 0.43085426
| 51> C 8.38467476 1.15698480 0.37115749
| 52> N 7.11424372 0.80887464 0.23825070
| 53> H 10.49016060 0.56132038 0.54197562
| 54> H 8.61249199 2.22785620 0.43755002
| 55> H -6.53640456 3.36779837 -1.26819346
| 56> H 8.12566655 -3.72290669 0.14097921
| 57> *
| 58> $new_job
| 59> # 
| 60> !wB97X-D3 def2-TZVP def2/J RIJCOSX Grid5 FinalGrid6 TightSCF
| 61> %pal 
| 62>  nprocs 24
| 63> end
| 64> %elprop
| 65>    dipole     true
| 66>    quadrupole true
| 67> end
| 68> %tddft
| 69>   Mode sTDDFT
| 70>   nroots 2
| 71>   Ethresh 10.0
| 72>   maxcore 5000
| 73> end
| 74> * xyz 0 1 
| 75> C -4.74025973 -2.56662602 1.36541506
| 76> C -4.02149239 -1.52193690 0.79016818
| 77> C -4.71819871 -0.40849145 0.28299709
| 78> C -6.13737713 -0.39242597 0.38985826
| 79> C -6.86461690 -1.44703978 0.96272076
| 80> C -6.14355238 -2.53501150 1.44790419
| 81> C -4.33561146 0.84746207 -0.34357640
| 82> C -5.55032443 1.56282528 -0.56342564
| 83> N -6.61668903 0.79559306 -0.13347942
| 84> C -5.59268239 2.85270913 -1.11262527
| 85> C -4.37659302 3.45052472 -1.43674405
| 86> C -3.16721530 2.77533089 -1.23118007
| 87> C -3.10884217 1.47000445 -0.70543405
| 88> H -2.23899665 3.26818323 -1.51133350
| 89> H -7.58933178 1.07553242 -0.16439576
| 90> H -4.36221568 4.45173066 -1.85764205
| 91> H -2.93814005 -1.57286031 0.73318300
| 92> H -7.94874607 -1.41166879 1.02888995
| 93> H -6.67206910 -3.37076906 1.89882484
| 94> H -4.20717288 -3.42857503 1.75726193
| 95> S 2.82111317 -1.46524299 -0.25649505
| 96> C 4.31974501 -0.52405930 -0.07791353
| 97> N 4.11320440 0.79033108 -0.04199492
| 98> N 2.80054434 1.13676424 -0.14922894
| 99> C 1.98164832 0.09827878 -0.26906297
|100> C 0.54818657 0.20997907 -0.39680086
|101> N -0.26416495 -0.83232729 -0.52129756
|102> N -1.58107930 -0.48147685 -0.62658407
|103> C -1.79836443 0.82446349 -0.57898435
|104> S -0.29478332 1.76467454 -0.40581414
|105> C 5.61358145 -1.14929117 0.01597054
|106> S 5.79397455 -2.88692972 -0.04063633
|107> C 7.51883040 -2.82652822 0.12240526
|108> C 7.95672733 -1.50584520 0.21891019
|109> C 6.87845714 -0.54448952 0.15916620
|110> N 9.27245080 -1.10479219 0.35829963
|111> C 9.45912272 0.20237248 0.43085426
|112> C 8.38467476 1.15698480 0.37115749
|113> N 7.11424372 0.80887464 0.23825070
|114> H 10.49016060 0.56132038 0.54197562
|115> H 8.61249199 2.22785620 0.43755002
|116> H -6.53640456 3.36779837 -1.26819346
|117> H 8.12566655 -3.72290669 0.14097921
|118> *
|119> 
|120>                          ****END OF INPUT****
================================================================================


                 $$$$$$$$$$$$$$$$$$$$$$$$$$$$$$$$$$$$$$$$$$$$$$ 
                 $ THERE ARE  2 JOBS TO BE PROCESSED THIS RUN $
                 $$$$$$$$$$$$$$$$$$$$$$$$$$$$$$$$$$$$$$$$$$$$$$ 




                 $$$$$$$$$$$$$$$$  JOB NUMBER  1 $$$$$$$$$$$$$$


                       ****************************
                       * Single Point Calculation *
                       ****************************

---------------------------------
CARTESIAN COORDINATES (ANGSTROEM)
---------------------------------
  C     -4.740260   -2.566626    1.365415
  C     -4.021492   -1.521937    0.790168
  C     -4.718199   -0.408491    0.282997
  C     -6.137377   -0.392426    0.389858
  C     -6.864617   -1.447040    0.962721
  C     -6.143552   -2.535011    1.447904
  C     -4.335611    0.847462   -0.343576
  C     -5.550324    1.562825   -0.563426
  N     -6.616689    0.795593   -0.133479
  C     -5.592682    2.852709   -1.112625
  C     -4.376593    3.450525   -1.436744
  C     -3.167215    2.775331   -1.231180
  C     -3.108842    1.470004   -0.705434
  H     -2.238997    3.268183   -1.511334
  H     -7.589332    1.075532   -0.164396
  H     -4.362216    4.451731   -1.857642
  H     -2.938140   -1.572860    0.733183
  H     -7.948746   -1.411669    1.028890
  H     -6.672069   -3.370769    1.898825
  H     -4.207173   -3.428575    1.757262
  S      2.821113   -1.465243   -0.256495
  C      4.319745   -0.524059   -0.077914
  N      4.113204    0.790331   -0.041995
  N      2.800544    1.136764   -0.149229
  C      1.981648    0.098279   -0.269063
  C      0.548187    0.209979   -0.396801
  N     -0.264165   -0.832327   -0.521298
  N     -1.581079   -0.481477   -0.626584
  C     -1.798364    0.824463   -0.578984
  S     -0.294783    1.764675   -0.405814
  C      5.613581   -1.149291    0.015971
  S      5.793975   -2.886930   -0.040636
  C      7.518830   -2.826528    0.122405
  C      7.956727   -1.505845    0.218910
  C      6.878457   -0.544490    0.159166
  N      9.272451   -1.104792    0.358300
  C      9.459123    0.202372    0.430854
  C      8.384675    1.156985    0.371157
  N      7.114244    0.808875    0.238251
  H     10.490161    0.561320    0.541976
  H      8.612492    2.227856    0.437550
  H     -6.536405    3.367798   -1.268193
  H      8.125667   -3.722907    0.140979

----------------------------
CARTESIAN COORDINATES (A.U.)
----------------------------
  NO LB      ZA    FRAG     MASS         X           Y           Z
   0 C     6.0000    0    12.011   -8.957793   -4.850220    2.580261
   1 C     6.0000    0    12.011   -7.599519   -2.876044    1.493201
   2 C     6.0000    0    12.011   -8.916103   -0.771937    0.534787
   3 C     6.0000    0    12.011  -11.597962   -0.741578    0.736725
   4 C     6.0000    0    12.011  -12.972246   -2.734509    1.819279
   5 C     6.0000    0    12.011  -11.609631   -4.790477    2.736142
   6 C     6.0000    0    12.011   -8.193118    1.601471   -0.649265
   7 C     6.0000    0    12.011  -10.488593    2.953312   -1.064720
   8 N     7.0000    0    14.007  -12.503730    1.503453   -0.252240
   9 C     6.0000    0    12.011  -10.568638    5.390839   -2.102557
  10 C     6.0000    0    12.011   -8.270562    6.520547   -2.715053
  11 C     6.0000    0    12.011   -5.985170    5.244615   -2.326593
  12 C     6.0000    0    12.011   -5.874860    2.777906   -1.333077
  13 H     1.0000    0     1.008   -4.231090    6.175971   -2.856006
  14 H     1.0000    0     1.008  -14.341759    2.032462   -0.310663
  15 H     1.0000    0     1.008   -8.243393    8.412552   -3.510435
  16 H     1.0000    0     1.008   -5.552280   -2.972275    1.385515
  17 H     1.0000    0     1.008  -15.020953   -2.667667    1.944320
  18 H     1.0000    0     1.008  -12.608383   -6.369830    3.588259
  19 H     1.0000    0     1.008   -7.950405   -6.479068    3.320744
  20 S    16.0000    0    32.060    5.331131   -2.768908   -0.484705
  21 C     6.0000    0    12.011    8.163135   -0.990329   -0.147235
  22 N     7.0000    0    14.007    7.772830    1.493509   -0.079359
  23 N     7.0000    0    14.007    5.292262    2.148173   -0.282002
  24 C     6.0000    0    12.011    3.744773    0.185720   -0.508455
  25 C     6.0000    0    12.011    1.035922    0.396803   -0.749845
  26 N     7.0000    0    14.007   -0.499199   -1.572871   -0.985110
  27 N     7.0000    0    14.007   -2.987807   -0.909859   -1.184072
  28 C     6.0000    0    12.011   -3.398416    1.558010   -1.094122
  29 S    16.0000    0    32.060   -0.557060    3.334752   -0.766878
  30 C     6.0000    0    12.011   10.608132   -2.171846    0.030180
  31 S    16.0000    0    32.060   10.949025   -5.455507   -0.076792
  32 C     6.0000    0    12.011   14.208530   -5.341364    0.231312
  33 C     6.0000    0    12.011   15.036036   -2.845635    0.413680
  34 C     6.0000    0    12.011   12.998400   -1.028936    0.300781
  35 N     7.0000    0    14.007   17.522393   -2.087755    0.677088
  36 C     6.0000    0    12.011   17.875151    0.382429    0.814197
  37 C     6.0000    0    12.011   15.844739    2.186384    0.701386
  38 N     7.0000    0    14.007   13.443972    1.528552    0.450229
  39 H     1.0000    0     1.008   19.823531    1.060742    1.024185
  40 H     1.0000    0     1.008   16.275251    4.210038    0.826850
  41 H     1.0000    0     1.008  -12.352015    6.364217   -2.396538
  42 H     1.0000    0     1.008   15.355284   -7.035274    0.266412

--------------------------------
INTERNAL COORDINATES (ANGSTROEM)
--------------------------------
 C      0   0   0     0.000000000000     0.00000000     0.00000000
 C      1   0   0     1.392447779792     0.00000000     0.00000000
 C      2   1   0     1.407971228749   119.12374405     0.00000000
 C      3   2   1     1.423286618041   118.37777636     0.49516550
 C      4   3   2     1.403303037558   122.60914893   359.14129336
 C      5   4   3     1.392486792135   117.45546368     0.54485535
 C      3   2   1     1.454780597421   135.05166913   178.50105124
 C      7   3   2     1.426746582276   105.98182773   182.63834628
 N      8   7   3     1.382256304609   109.30420764   358.71443954
 C      8   7   3     1.402574339156   123.17231000   177.68162256
 C     10   8   7     1.393308946007   117.34308789   359.22216502
 C     11  10   8     1.400263449347   120.84949949     0.65927768
 C     12  11  10     1.408436514300   122.51258275     0.59273828
 H     12  11  10     1.087648488985   118.73555864   179.02725525
 H      9   8   7     1.012598530753   125.31557779   179.09312017
 H     11  10   8     1.086174557150   119.81451939   180.44945451
 H      2   1   3     1.086044564928   120.09320772   180.21930927
 H      5   4   3     1.086722377557   121.15755046   180.23219975
 H      6   5   4     1.086807275929   119.57609545   179.97951684
 H      1   2   3     1.086591760972   119.39842244   179.93405252
 S     17   2   1     5.844659252882   172.29269146   145.42016594
 C     21  17   2     1.778655528614   145.38567702    86.11369410
 N     22  21  17     1.331003847162   113.23559990   332.73381988
 N     23  22  21     1.361833874785   113.49446173     0.00000000
 C     24  23  22     1.327931826921   113.73893744     0.00000000
 C     25  24  23     1.443470301752   124.04639812   179.97073011
 N     26  25  24     1.327334535245   123.73191392   179.73638222
 N     27  26  25     1.366910635584   113.28468247   179.98336105
 C     28  27  26     1.324748554520   114.09701838   359.72068143
 S     26  25  24     1.768546713859   122.80746201   359.89247156
 C     22  21  17     1.440049250316   122.26370292   152.73508825
 S     31  22  21     1.747894086810   121.48277676     0.00000000
 C     32  31  22     1.733597013308    93.72699501   180.00437655
 C     33  32  31     1.394729565950   110.60245713     0.00000000
 C     31  22  21     1.409326273096   128.80553625   180.02174847
 N     34  33  32     1.382534333144   125.48247472   179.99830290
 C     36  34  33     1.322418260063   115.25254730   180.00014280
 C     37  36  34     1.438501583104   123.24698664     0.00000000
 N     38  37  36     1.323948611434   123.12095825     0.00000000
 H     37  36  34     1.097374439996   117.48434016   179.99964132
 H     38  37  36     1.096847397619   119.35706500   180.00097178
 H     10   8   7     1.086337848486   121.22266219   179.87654021
 H     33  32  31     1.082630807822   122.03650886   180.00184541

---------------------------
INTERNAL COORDINATES (A.U.)
---------------------------
 C      0   0   0     0.000000000000     0.00000000     0.00000000
 C      1   0   0     2.631344959593     0.00000000     0.00000000
 C      2   1   0     2.660680026777   119.12374405     0.00000000
 C      3   2   1     2.689621918173   118.37777636     0.49516550
 C      4   3   2     2.651858423884   122.60914893   359.14129336
 C      5   4   3     2.631418682237   117.45546368     0.54485535
 C      3   2   1     2.749136914069   135.05166913   178.50105124
 C      7   3   2     2.696160303010   105.98182773   182.63834628
 N      8   7   3     2.612085862597   109.30420764   358.71443954
 C      8   7   3     2.650481383470   123.17231000   177.68162256
 C     10   8   7     2.632972327895   117.34308789   359.22216502
 C     11  10   8     2.646114434605   120.84949949     0.65927768
 C     12  11  10     2.661559289043   122.51258275     0.59273828
 H     12  11  10     2.055357774156   118.73555864   179.02725525
 H      9   8   7     1.913533906735   125.31557779   179.09312017
 H     11  10   8     2.052572446647   119.81451939   180.44945451
 H      2   1   3     2.052326796947   120.09320772   180.21930927
 H      5   4   3     2.053607677187   121.15755046   180.23219975
 H      6   5   4     2.053768111860   119.57609545   179.97951684
 H      1   2   3     2.053360847612   119.39842244   179.93405252
 S     17   2   1    11.044805334035   172.29269146   145.42016594
 C     21  17   2     3.361171835665   145.38567702    86.11369410
 N     22  21  17     2.515232754332   113.23559990   332.73381988
 N     23  22  21     2.573493063241   113.49446173     0.00000000
 C     24  23  22     2.509427477398   113.73893744     0.00000000
 C     25  24  23     2.727763552760   124.04639812   179.97073011
 N     26  25  24     2.508298759708   123.73191392   179.73638222
 N     27  26  25     2.583086750798   113.28468247   179.98336105
 C     28  27  26     2.503411964351   114.09701838   359.72068143
 S     26  25  24     3.342068944240   122.80746201   359.89247156
 C     22  21  17     2.721298702456   122.26370292   152.73508825
 S     31  22  21     3.303041135171   121.48277676     0.00000000
 C     32  31  22     3.276023581736    93.72699501   180.00437655
 C     33  32  31     2.635656910528   110.60245713     0.00000000
 C     31  22  21     2.663240689491   128.80553625   180.02174847
 N     34  33  32     2.612611260386   125.48247472   179.99830290
 C     36  34  33     2.499008346015   115.25254730   180.00014280
 C     37  36  34     2.718374035279   123.24698664     0.00000000
 N     38  37  36     2.501900290996   123.12095825     0.00000000
 H     37  36  34     2.073737157959   117.48434016   179.99964132
 H     38  37  36     2.072741192203   119.35706500   180.00097178
 H     10   8   7     2.052881022552   121.22266219   179.87654021
 H     33  32  31     2.045875730929   122.03650886   180.00184541

---------------------
BASIS SET INFORMATION
---------------------
There are 4 groups of distinct atoms

 Group   1 Type C   : 11s6p2d1f contracted to 5s3p2d1f pattern {62111/411/11/1}
 Group   2 Type N   : 11s6p2d1f contracted to 5s3p2d1f pattern {62111/411/11/1}
 Group   3 Type H   : 5s1p contracted to 3s1p pattern {311/1}
 Group   4 Type S   : 14s9p3d1f contracted to 5s5p2d1f pattern {73211/51111/21/1}

Atom   0C    basis set group =>   1
Atom   1C    basis set group =>   1
Atom   2C    basis set group =>   1
Atom   3C    basis set group =>   1
Atom   4C    basis set group =>   1
Atom   5C    basis set group =>   1
Atom   6C    basis set group =>   1
Atom   7C    basis set group =>   1
Atom   8N    basis set group =>   2
Atom   9C    basis set group =>   1
Atom  10C    basis set group =>   1
Atom  11C    basis set group =>   1
Atom  12C    basis set group =>   1
Atom  13H    basis set group =>   3
Atom  14H    basis set group =>   3
Atom  15H    basis set group =>   3
Atom  16H    basis set group =>   3
Atom  17H    basis set group =>   3
Atom  18H    basis set group =>   3
Atom  19H    basis set group =>   3
Atom  20S    basis set group =>   4
Atom  21C    basis set group =>   1
Atom  22N    basis set group =>   2
Atom  23N    basis set group =>   2
Atom  24C    basis set group =>   1
Atom  25C    basis set group =>   1
Atom  26N    basis set group =>   2
Atom  27N    basis set group =>   2
Atom  28C    basis set group =>   1
Atom  29S    basis set group =>   4
Atom  30C    basis set group =>   1
Atom  31S    basis set group =>   4
Atom  32C    basis set group =>   1
Atom  33C    basis set group =>   1
Atom  34C    basis set group =>   1
Atom  35N    basis set group =>   2
Atom  36C    basis set group =>   1
Atom  37C    basis set group =>   1
Atom  38N    basis set group =>   2
Atom  39H    basis set group =>   3
Atom  40H    basis set group =>   3
Atom  41H    basis set group =>   3
Atom  42H    basis set group =>   3
-------------------------------
AUXILIARY BASIS SET INFORMATION
-------------------------------
There are 4 groups of distinct atoms

 Group   1 Type C   : 12s5p4d2f1g contracted to 6s4p3d1f1g pattern {711111/2111/211/2/1}
 Group   2 Type N   : 12s5p4d2f1g contracted to 6s4p3d1f1g pattern {711111/2111/211/2/1}
 Group   3 Type H   : 5s2p1d contracted to 3s1p1d pattern {311/2/1}
 Group   4 Type S   : 14s5p5d2f1g contracted to 8s4p3d1f1g pattern {71111111/2111/311/2/1}

Atom   0C    basis set group =>   1
Atom   1C    basis set group =>   1
Atom   2C    basis set group =>   1
Atom   3C    basis set group =>   1
Atom   4C    basis set group =>   1
Atom   5C    basis set group =>   1
Atom   6C    basis set group =>   1
Atom   7C    basis set group =>   1
Atom   8N    basis set group =>   2
Atom   9C    basis set group =>   1
Atom  10C    basis set group =>   1
Atom  11C    basis set group =>   1
Atom  12C    basis set group =>   1
Atom  13H    basis set group =>   3
Atom  14H    basis set group =>   3
Atom  15H    basis set group =>   3
Atom  16H    basis set group =>   3
Atom  17H    basis set group =>   3
Atom  18H    basis set group =>   3
Atom  19H    basis set group =>   3
Atom  20S    basis set group =>   4
Atom  21C    basis set group =>   1
Atom  22N    basis set group =>   2
Atom  23N    basis set group =>   2
Atom  24C    basis set group =>   1
Atom  25C    basis set group =>   1
Atom  26N    basis set group =>   2
Atom  27N    basis set group =>   2
Atom  28C    basis set group =>   1
Atom  29S    basis set group =>   4
Atom  30C    basis set group =>   1
Atom  31S    basis set group =>   4
Atom  32C    basis set group =>   1
Atom  33C    basis set group =>   1
Atom  34C    basis set group =>   1
Atom  35N    basis set group =>   2
Atom  36C    basis set group =>   1
Atom  37C    basis set group =>   1
Atom  38N    basis set group =>   2
Atom  39H    basis set group =>   3
Atom  40H    basis set group =>   3
Atom  41H    basis set group =>   3
Atom  42H    basis set group =>   3
-------------------------
ECP PARAMETER INFORMATION
-------------------------



--------------------------------------------------------------------------
[[44088,1],1]: A high-performance Open MPI point-to-point messaging module
was unable to find any relevant network interfaces:

Module: OpenFabrics (openib)
  Host: cx1-108-10-3

Another transport will be used instead, although this may result in
lower performance.
--------------------------------------------------------------------------


           ************************************************************
           *        Program running with 24 parallel MPI-processes    *
           *              working on a common directory               *
           ************************************************************
------------------------------------------------------------------------------
                           ORCA GTO INTEGRAL CALCULATION
                           -- RI-GTO INTEGRALS CHOSEN --
------------------------------------------------------------------------------

                         BASIS SET STATISTICS AND STARTUP INFO

Gaussian basis set:
 # of primitive gaussian shells          ...  727
 # of primitive gaussian functions       ... 1611
 # of contracted shells                  ...  402
 # of contracted basis functions         ... 1076
 Highest angular momentum                ...    3
 Maximum contraction depth               ...    7
Auxiliary gaussian basis set:
 # of primitive gaussian shells          ...  865
 # of primitive gaussian functions       ... 2437
 # of contracted shells                  ...  541
 # of contracted aux-basis functions     ... 1695
 Highest angular momentum                ...    4
 Maximum contraction depth               ...    7
Ratio of auxiliary to basis functions    ...  1.58
Integral package used                  ... LIBINT
 One Electron integrals                  
   ECP integrals                         ... done
 Ordering auxiliary basis shells         ... done
 Integral threshhold             Thresh  ...  2.500e-11
 Primitive cut-off               TCut    ...  2.500e-12
 Pre-screening matrix                    ... done
 Shell pair data                         ... 
 Ordering of the shell pairs             ... done (   0.014 sec) 40069 of 81003 pairs
 Determination of significant pairs      ... done (   0.000 sec)
 Creation of shell pair data             ... done (   0.010 sec)
 Storage of shell pair data              ... done (   0.104 sec)
 Shell pair data done in (   0.128 sec)
 Computing two index integrals           ... done
 Cholesky decomposition of the V-matrix  ... done


Timings:
 Total evaluation time                   ...   5.117 sec (  0.085 min)
 One electron matrix time                ...   1.386 sec (  0.023 min) = 27.1%
 Schwartz matrix evaluation time         ...   2.602 sec (  0.043 min) = 50.8%
 Two index repulsion integral time       ...   0.422 sec (  0.007 min) =  8.3%
 Cholesky decomposition of V             ...   0.535 sec (  0.009 min) = 10.4%
 Three index repulsion integral time     ...   0.000 sec (  0.000 min) =  0.0%

--------------------------------------------------------------------------
[[44133,1],1]: A high-performance Open MPI point-to-point messaging module
was unable to find any relevant network interfaces:

Module: OpenFabrics (openib)
  Host: cx1-108-10-3

Another transport will be used instead, although this may result in
lower performance.
--------------------------------------------------------------------------


           ************************************************************
           *        Program running with 24 parallel MPI-processes    *
           *              working on a common directory               *
           ************************************************************
-------------------------------------------------------------------------------
                                 ORCA SCF
-------------------------------------------------------------------------------

------------
SCF SETTINGS
------------
Hamiltonian:
 Density Functional     Method          .... DFT(GTOs)
 Exchange Functional    Exchange        .... WB97X-D3
 Correlation Functional Correlation     .... WB97X-D3
 Gradients option       PostSCFGGA      .... off
 Hybrid DFT is turned on
   Fraction HF Exchange ScalHFX         ....  0.195728
   Scaling of DF-GGA-X  ScalDFX         ....  0.000000
   Scaling of DF-GGA-C  ScalDFC         ....  1.000000
   Scaling of DF-LDA-C  ScalLDAC        ....  1.000000
   Perturbative correction              ....  0.000000
 Long-range corrected/Screened/Range-Separated Hybrid DFT is turned on
   Amount of maximum screened exact exchange              ....  0.804272
   Range separation parameter mu (erf(mu*r12)/r12)        ....  0.250000
 RI-approximation to the Coulomb term is turned on
   Number of auxiliary basis functions  .... 1695
   RIJ-COSX (HFX calculated with COS-X)).... on


General Settings:
 Integral files         IntName         .... total
 Hartree-Fock type      HFTyp           .... RHF
 Total Charge           Charge          ....    0
 Multiplicity           Mult            ....    1
 Number of Electrons    NEL             ....  240
 Basis Dimension        Dim             .... 1076
 Nuclear Repulsion      ENuc            ....   3190.8875481777 Eh

Convergence Acceleration:
 DIIS                   CNVDIIS         .... on
   Start iteration      DIISMaxIt       ....    12
   Startup error        DIISStart       ....  0.200000
   # of expansion vecs  DIISMaxEq       ....     5
   Bias factor          DIISBfac        ....   1.050
   Max. coefficient     DIISMaxC        ....  10.000
 Newton-Raphson         CNVNR           .... off
 SOSCF                  CNVSOSCF        .... on
   Start iteration      SOSCFMaxIt      ....   150
   Startup grad/error   SOSCFStart      ....  0.003300
 Level Shifting         CNVShift        .... on
   Level shift para.    LevelShift      ....    0.2500
   Turn off err/grad.   ShiftErr        ....    0.0010
 Zerner damping         CNVZerner       .... off
 Static damping         CNVDamp         .... on
   Fraction old density DampFac         ....    0.7000
   Max. Damping (<1)    DampMax         ....    0.9800
   Min. Damping (>=0)   DampMin         ....    0.0000
   Turn off err/grad.   DampErr         ....    0.1000
 Fernandez-Rico         CNVRico         .... off

SCF Procedure:
 Maximum # iterations   MaxIter         ....   125
 SCF integral mode      SCFMode         .... Direct
   Integral package                     .... LIBINT
 Reset frequeny         DirectResetFreq ....    20
 Integral Threshold     Thresh          ....  2.500e-11 Eh
 Primitive CutOff       TCut            ....  2.500e-12 Eh

Convergence Tolerance:
 Convergence Check Mode ConvCheckMode   .... Total+1el-Energy
 Convergence forced     ConvForced      .... 1
 Energy Change          TolE            ....  1.000e-08 Eh
 1-El. energy change                    ....  1.000e-05 Eh
 Orbital Gradient       TolG            ....  1.000e-05
 Orbital Rotation angle TolX            ....  1.000e-05
 DIIS Error             TolErr          ....  5.000e-07


Diagonalization of the overlap matrix:
Smallest eigenvalue                        ... 6.232e-06
Time for diagonalization                   ...    0.414 sec
Threshold for overlap eigenvalues          ... 1.000e-08
Number of eigenvalues below threshold      ... 0
Time for construction of square roots      ...    0.424 sec
Total time needed                          ...    0.846 sec

-------------------
DFT GRID GENERATION
-------------------

General Integration Accuracy     IntAcc      ...  5.010
Radial Grid Type                 RadialGrid  ... Gauss-Chebyshev
Angular Grid (max. acc.)         AngularGrid ... Lebedev-434
Angular grid pruning method      GridPruning ... 3 (G Style)
Weight generation scheme         WeightScheme... Becke
Basis function cutoff            BFCut       ...    1.0000e-11
Integration weight cutoff        WCut        ...    1.0000e-14
Grids for H and He will be reduced by one unit

# of grid points (after initial pruning)     ... 418318 (   0.0 sec)
# of grid points (after weights+screening)   ... 370714 (   1.0 sec)
nearest neighbour list constructed           ...    0.0 sec
Grid point re-assignment to atoms done       ...    0.2 sec
Grid point division into batches done        ...    4.9 sec
Reduced shell lists constructed in    5.8 sec

Total number of grid points                  ...   370714
Total number of batches                      ...     5811
Average number of points per batch           ...       63
Average number of grid points per atom       ...     8621
Average number of shells per batch           ...   129.19 (32.14%)
Average number of basis functions per batch  ...   336.97 (31.32%)
Average number of large shells per batch     ...    88.98 (68.87%)
Average number of large basis fcns per batch ...   230.39 (68.37%)
Maximum spatial batch extension              ...   9.36, 16.89, 14.28 au
Average spatial batch extension              ...   0.05,  0.07,  0.06 au

Time for grid setup =    7.214 sec

------------------------------
INITIAL GUESS: MODEL POTENTIAL
------------------------------
Loading Hartree-Fock densities                     ... done
Calculating cut-offs                               ... done
Setting up the integral package                    ... done
Initializing the effective Hamiltonian             ... done
Starting the Coulomb interaction                   ... done (   0.5 sec)
Reading the grid                                   ... done
Mapping shells                                     ... done
Starting the XC term evaluation                    ... done (   1.9 sec)
  promolecular density results
     # of electrons  =    239.994518556
     EX              =   -236.196439681
     EC              =     -8.402213716
     EX+EC           =   -244.598653397
Transforming the Hamiltonian                       ... done (   0.2 sec)
Diagonalizing the Hamiltonian                      ... done (   0.4 sec)
Back transforming the eigenvectors                 ... done (   0.1 sec)
Now organizing SCF variables                       ... done
                      ------------------
                      INITIAL GUESS DONE (  10.7 sec)
                      ------------------
--------------------
COSX GRID GENERATION
--------------------

General Integration Accuracy     IntAcc      ...  3.340
Radial Grid Type                 RadialGrid  ... Gauss-Chebyshev
Angular Grid (max. acc.)         AngularGrid ... Lebedev-50
Angular grid pruning method      GridPruning ... 3 (G Style)
Weight generation scheme         WeightScheme... Becke
Basis function cutoff            BFCut       ...    1.0000e-11
Integration weight cutoff        WCut        ...    1.0000e-14
Grids for H and He will be reduced by one unit

# of grid points (after initial pruning)     ...  22360 (   0.0 sec)
# of grid points (after weights+screening)   ...  20606 (   0.1 sec)
nearest neighbour list constructed           ...    0.0 sec
Grid point re-assignment to atoms done       ...    0.0 sec
Grid point division into batches done        ...    0.0 sec
Reduced shell lists constructed in    0.1 sec

Total number of grid points                  ...    20606
Total number of batches                      ...      341
Average number of points per batch           ...       60
Average number of grid points per atom       ...      479
Average number of shells per batch           ...   143.75 (35.76%)
Average number of basis functions per batch  ...   383.00 (35.59%)
Average number of large shells per batch     ...   102.06 (71.00%)
Average number of large basis fcns per batch ...   269.56 (70.38%)
Maximum spatial batch extension              ...   4.03, 14.14, 22.43 au
Average spatial batch extension              ...   0.10,  0.21,  0.28 au

Overlap Fitting                  UseSFitting ... on
Constructing numerical overlap ... done (      0.1 sec)
Inverting numerical overlap    ... done (      0.2 sec)
Obtaining analytic overlap     ... done (      0.0 sec)
Final contraction and storage  ... done (      0.5 sec)


General Integration Accuracy     IntAcc      ...  3.670
Radial Grid Type                 RadialGrid  ... Gauss-Chebyshev
Angular Grid (max. acc.)         AngularGrid ... Lebedev-50
Angular grid pruning method      GridPruning ... 3 (G Style)
Weight generation scheme         WeightScheme... Becke
Basis function cutoff            BFCut       ...    1.0000e-11
Integration weight cutoff        WCut        ...    1.0000e-14
Grids for H and He will be reduced by one unit

# of grid points (after initial pruning)     ...  27880 (   0.0 sec)
# of grid points (after weights+screening)   ...  25613 (   0.1 sec)
nearest neighbour list constructed           ...    0.0 sec
Grid point re-assignment to atoms done       ...    0.0 sec
Grid point division into batches done        ...    0.0 sec
Reduced shell lists constructed in    0.1 sec

Total number of grid points                  ...    25613
Total number of batches                      ...      420
Average number of points per batch           ...       60
Average number of grid points per atom       ...      596
Average number of shells per batch           ...   143.95 (35.81%)
Average number of basis functions per batch  ...   381.84 (35.49%)
Average number of large shells per batch     ...   101.84 (70.75%)
Average number of large basis fcns per batch ...   269.00 (70.45%)
Maximum spatial batch extension              ...   3.96, 13.28, 15.45 au
Average spatial batch extension              ...   0.10,  0.19,  0.24 au

Overlap Fitting                  UseSFitting ... on
Constructing numerical overlap ... done (      0.1 sec)
Inverting numerical overlap    ... done (      0.1 sec)
Obtaining analytic overlap     ... done (      0.0 sec)
Final contraction and storage  ... done (      0.5 sec)


General Integration Accuracy     IntAcc      ...  4.010
Radial Grid Type                 RadialGrid  ... Gauss-Chebyshev
Angular Grid (max. acc.)         AngularGrid ... Lebedev-110
Angular grid pruning method      GridPruning ... 3 (G Style)
Weight generation scheme         WeightScheme... Becke
Basis function cutoff            BFCut       ...    1.0000e-11
Integration weight cutoff        WCut        ...    1.0000e-14
Grids for H and He will be reduced by one unit

# of grid points (after initial pruning)     ...  54816 (   0.0 sec)
# of grid points (after weights+screening)   ...  49839 (   0.1 sec)
nearest neighbour list constructed           ...    0.0 sec
Grid point re-assignment to atoms done       ...    0.0 sec
Grid point division into batches done        ...    0.1 sec
Reduced shell lists constructed in    0.2 sec

Total number of grid points                  ...    49839
Total number of batches                      ...      798
Average number of points per batch           ...       62
Average number of grid points per atom       ...     1159
Average number of shells per batch           ...   141.49 (35.20%)
Average number of basis functions per batch  ...   375.26 (34.88%)
Average number of large shells per batch     ...    98.66 (69.73%)
Average number of large basis fcns per batch ...   259.17 (69.07%)
Maximum spatial batch extension              ...   4.29, 13.88, 21.14 au
Average spatial batch extension              ...   0.09,  0.15,  0.22 au

Overlap Fitting                  UseSFitting ... on
Constructing numerical overlap ... done (      0.2 sec)
Inverting numerical overlap    ... done (      0.2 sec)
Obtaining analytic overlap     ... done (      0.0 sec)
Final contraction and storage  ... done (      0.5 sec)

Time for X-Grid setup             =    3.465 sec
--------------
SCF ITERATIONS
--------------
ITER       Energy         Delta-E        Max-DP      RMS-DP      [F,P]     Damp
               ***  Starting incremental Fock matrix formation  ***
  0  -2422.1475593312   0.000000000000 0.22954367  0.00075386  0.1745955 0.7000
  1  -2422.4319887440  -0.284429412818 0.21325707  0.00064562  0.0950004 0.7000
                               ***Turning on DIIS***
  2  -2422.5649112772  -0.132922533152 0.33450014  0.00126723  0.0536067 0.0000
  3  -2422.7765963266  -0.211685049442 0.16834084  0.00045335  0.0521017 0.0000
  4  -2422.8190152316  -0.042418904980 0.02492970  0.00014635  0.0110086 0.0000
  5  -2422.8210309863  -0.002015754722 0.01449075  0.00006484  0.0057187 0.0000
                      *** Initiating the SOSCF procedure ***
                           *** Shutting down DIIS ***
                      *** Re-Reading the Fockian *** 
                      *** Removing any level shift *** 
ITER      Energy       Delta-E        Grad      Rot      Max-DP    RMS-DP
  6  -2422.82161068  -0.0005796927  0.002036  0.002036  0.006552  0.000035
               *** Restarting incremental Fock matrix formation ***
  7  -2422.82183851  -0.0002278265  0.001328  0.004356  0.025482  0.000128
  8  -2422.82194139  -0.0001028802  0.000603  0.005630  0.017283  0.000093
  9  -2422.82196996  -0.0000285706  0.000334  0.000810  0.015038  0.000077
 10  -2422.82198476  -0.0000147999  0.000095  0.000286  0.002425  0.000013
 11  -2422.82198536  -0.0000006023  0.000089  0.000161  0.001878  0.000010
 12  -2422.82198618  -0.0000008200  0.000021  0.000108  0.000114  0.000001
 13  -2422.82198621  -0.0000000314  0.000018  0.000035  0.000220  0.000002
 14  -2422.82198629  -0.0000000756  0.000007  0.000023  0.000179  0.000002
                  ***Gradient check signals convergence***
              ***Rediagonalizing the Fockian in SOSCF/NRSCF***

               *****************************************************
               *                     SUCCESS                       *
               *           SCF CONVERGED AFTER  15 CYCLES          *
               *****************************************************

Old exchange energy                            =    -72.559378248 Eh
New exchange energy                            =    -72.560643613 Eh
Exchange energy change after final integration =     -0.001265365 Eh
Total energy after final integration           =  -2422.823251698 Eh
Final COS-X integration done in                =    43.389 sec

----------------
TOTAL SCF ENERGY
----------------

Total Energy       :        -2422.82325170 Eh          -65928.37241 eV

Components:
Nuclear Repulsion  :         3190.88754818 Eh           86828.46446 eV
Electronic Energy  :        -5613.71079988 Eh         -152756.83687 eV
One Electron Energy:        -9663.32881908 Eh         -262952.54542 eV
Two Electron Energy:         4049.61801920 Eh          110195.70854 eV

Virial components:
Potential Energy   :        -4836.74698897 Eh         -131614.57673 eV
Kinetic Energy     :         2413.92373727 Eh           65686.20431 eV
Virial Ratio       :            2.00368674


DFT components:
N(Alpha)           :      119.999967108459 electrons
N(Beta)            :      119.999967108459 electrons
N(Total)           :      239.999934216919 electrons
E(XC)              :     -175.997206922611 Eh       

---------------
SCF CONVERGENCE
---------------

  Last Energy change         ...   -4.7360e-08  Tolerance :   1.0000e-08
  Last MAX-Density change    ...    1.9602e-14  Tolerance :   1.0000e-07
  Last RMS-Density change    ...    8.5006e-17  Tolerance :   5.0000e-09
  Last Orbital Gradient      ...    2.4326e-06  Tolerance :   1.0000e-05
  Last Orbital Rotation      ...    7.1964e-06  Tolerance :   1.0000e-05

             **** THE GBW FILE WAS UPDATED (total.gbw) ****
             **** DENSITY FILE WAS UPDATED (total.scfp.tmp) ****
             **** ENERGY FILE WAS UPDATED (total.en.tmp) ****
----------------
ORBITAL ENERGIES
----------------

  NO   OCC          E(Eh)            E(eV) 
   0   2.0000     -89.023405     -2422.4500 
   1   2.0000     -89.010215     -2422.0911 
   2   2.0000     -89.007536     -2422.0182 
   3   2.0000     -14.474171      -393.8622 
   4   2.0000     -14.472955      -393.8291 
   5   2.0000     -14.471197      -393.7813 
   6   2.0000     -14.464501      -393.5991 
   7   2.0000     -14.464208      -393.5911 
   8   2.0000     -14.460389      -393.4872 
   9   2.0000     -14.455347      -393.3500 
  10   2.0000     -10.382032      -282.5095 
  11   2.0000     -10.380083      -282.4564 
  12   2.0000     -10.379086      -282.4293 
  13   2.0000     -10.374753      -282.3114 
  14   2.0000     -10.352455      -281.7046 
  15   2.0000     -10.348321      -281.5921 
  16   2.0000     -10.347731      -281.5761 
  17   2.0000     -10.346996      -281.5561 
  18   2.0000     -10.345336      -281.5109 
  19   2.0000     -10.343412      -281.4586 
  20   2.0000     -10.335278      -281.2372 
  21   2.0000     -10.326506      -280.9985 
  22   2.0000     -10.321159      -280.8530 
  23   2.0000     -10.305603      -280.4297 
  24   2.0000     -10.299882      -280.2740 
  25   2.0000     -10.296469      -280.1812 
  26   2.0000     -10.295337      -280.1504 
  27   2.0000     -10.289413      -279.9892 
  28   2.0000     -10.284893      -279.8662 
  29   2.0000     -10.283934      -279.8401 
  30   2.0000     -10.277886      -279.6755 
  31   2.0000     -10.271263      -279.4953 
  32   2.0000      -8.118741      -220.9222 
  33   2.0000      -8.106527      -220.5898 
  34   2.0000      -8.103754      -220.5144 
  35   2.0000      -6.071659      -165.2182 
  36   2.0000      -6.067548      -165.1064 
  37   2.0000      -6.066738      -165.0843 
  38   2.0000      -6.059634      -164.8910 
  39   2.0000      -6.056841      -164.8150 
  40   2.0000      -6.055792      -164.7865 
  41   2.0000      -6.053478      -164.7235 
  42   2.0000      -6.052912      -164.7081 
  43   2.0000      -6.050840      -164.6517 
  44   2.0000      -1.157117       -31.4868 
  45   2.0000      -1.149101       -31.2686 
  46   2.0000      -1.110923       -30.2298 
  47   2.0000      -1.108426       -30.1618 
  48   2.0000      -1.039556       -28.2878 
  49   2.0000      -1.020661       -27.7736 
  50   2.0000      -0.993993       -27.0479 
  51   2.0000      -0.978041       -26.6139 
  52   2.0000      -0.964432       -26.2435 
  53   2.0000      -0.950373       -25.8610 
  54   2.0000      -0.935964       -25.4689 
  55   2.0000      -0.915939       -24.9240 
  56   2.0000      -0.902281       -24.5523 
  57   2.0000      -0.888920       -24.1887 
  58   2.0000      -0.875745       -23.8302 
  59   2.0000      -0.865521       -23.5520 
  60   2.0000      -0.847382       -23.0584 
  61   2.0000      -0.841715       -22.9042 
  62   2.0000      -0.795129       -21.6366 
  63   2.0000      -0.785941       -21.3865 
  64   2.0000      -0.774161       -21.0660 
  65   2.0000      -0.760098       -20.6833 
  66   2.0000      -0.736691       -20.0464 
  67   2.0000      -0.725037       -19.7293 
  68   2.0000      -0.722309       -19.6550 
  69   2.0000      -0.712861       -19.3979 
  70   2.0000      -0.691672       -18.8214 
  71   2.0000      -0.671037       -18.2598 
  72   2.0000      -0.664364       -18.0783 
  73   2.0000      -0.650116       -17.6906 
  74   2.0000      -0.641024       -17.4431 
  75   2.0000      -0.625437       -17.0190 
  76   2.0000      -0.617490       -16.8027 
  77   2.0000      -0.610794       -16.6205 
  78   2.0000      -0.609160       -16.5761 
  79   2.0000      -0.580116       -15.7858 
  80   2.0000      -0.576501       -15.6874 
  81   2.0000      -0.571944       -15.5634 
  82   2.0000      -0.563131       -15.3236 
  83   2.0000      -0.561805       -15.2875 
  84   2.0000      -0.552646       -15.0383 
  85   2.0000      -0.550187       -14.9713 
  86   2.0000      -0.548147       -14.9158 
  87   2.0000      -0.540339       -14.7034 
  88   2.0000      -0.538820       -14.6620 
  89   2.0000      -0.533855       -14.5269 
  90   2.0000      -0.529918       -14.4198 
  91   2.0000      -0.526016       -14.3136 
  92   2.0000      -0.519625       -14.1397 
  93   2.0000      -0.515316       -14.0225 
  94   2.0000      -0.507205       -13.8018 
  95   2.0000      -0.486508       -13.2386 
  96   2.0000      -0.477851       -13.0030 
  97   2.0000      -0.472263       -12.8509 
  98   2.0000      -0.471324       -12.8254 
  99   2.0000      -0.468785       -12.7563 
 100   2.0000      -0.455322       -12.3899 
 101   2.0000      -0.446640       -12.1537 
 102   2.0000      -0.444717       -12.1014 
 103   2.0000      -0.435714       -11.8564 
 104   2.0000      -0.430213       -11.7067 
 105   2.0000      -0.421665       -11.4741 
 106   2.0000      -0.419770       -11.4225 
 107   2.0000      -0.401826       -10.9342 
 108   2.0000      -0.401170       -10.9164 
 109   2.0000      -0.394281       -10.7289 
 110   2.0000      -0.384320       -10.4579 
 111   2.0000      -0.376081       -10.2337 
 112   2.0000      -0.371560       -10.1107 
 113   2.0000      -0.364868        -9.9286 
 114   2.0000      -0.361163        -9.8277 
 115   2.0000      -0.351035        -9.5521 
 116   2.0000      -0.339249        -9.2314 
 117   2.0000      -0.307047        -8.3552 
 118   2.0000      -0.299440        -8.1482 
 119   2.0000      -0.289943        -7.8898 
 120   0.0000      -0.055847        -1.5197 
 121   0.0000      -0.022915        -0.6236 
 122   0.0000       0.009990         0.2718 
 123   0.0000       0.036061         0.9813 
 124   0.0000       0.041310         1.1241 
 125   0.0000       0.051381         1.3981 
 126   0.0000       0.061896         1.6843 
 127   0.0000       0.071119         1.9352 
 128   0.0000       0.082742         2.2515 
 129   0.0000       0.094870         2.5815 
 130   0.0000       0.104007         2.8302 
 131   0.0000       0.108528         2.9532 
 132   0.0000       0.110643         3.0108 
 133   0.0000       0.116462         3.1691 
 134   0.0000       0.119384         3.2486 
 135   0.0000       0.125290         3.4093 
 136   0.0000       0.131584         3.5806 
 137   0.0000       0.135924         3.6987 
 138   0.0000       0.139922         3.8075 
 139   0.0000       0.141750         3.8572 
 140   0.0000       0.147397         4.0109 
 141   0.0000       0.151621         4.1258 
 142   0.0000       0.160410         4.3650 
 143   0.0000       0.165391         4.5005 
 144   0.0000       0.167961         4.5704 
 145   0.0000       0.173625         4.7246 
 146   0.0000       0.174902         4.7593 
 147   0.0000       0.183983         5.0064 
 148   0.0000       0.189352         5.1525 
 149   0.0000       0.196245         5.3401 
 150   0.0000       0.205502         5.5920 
 151   0.0000       0.207708         5.6520 
 152   0.0000       0.211994         5.7687 
 153   0.0000       0.215234         5.8568 
 154   0.0000       0.219665         5.9774 
 155   0.0000       0.226791         6.1713 
 156   0.0000       0.231395         6.2966 
 157   0.0000       0.236552         6.4369 
 158   0.0000       0.246968         6.7204 
 159   0.0000       0.249849         6.7987 
 160   0.0000       0.253776         6.9056 
 161   0.0000       0.255789         6.9604 
 162   0.0000       0.259014         7.0481 
 163   0.0000       0.263809         7.1786 
 164   0.0000       0.265961         7.2372 
 165   0.0000       0.267068         7.2673 
 166   0.0000       0.271704         7.3934 
 167   0.0000       0.277087         7.5399 
 168   0.0000       0.279741         7.6121 
 169   0.0000       0.284629         7.7452 
 170   0.0000       0.288595         7.8531 
 171   0.0000       0.289494         7.8775 
 172   0.0000       0.290761         7.9120 
 173   0.0000       0.294302         8.0084 
 174   0.0000       0.295603         8.0438 
 175   0.0000       0.298336         8.1181 
 176   0.0000       0.299730         8.1561 
 177   0.0000       0.301789         8.2121 
 178   0.0000       0.307340         8.3631 
 179   0.0000       0.312252         8.4968 
 180   0.0000       0.315748         8.5919 
 181   0.0000       0.319621         8.6973 
 182   0.0000       0.326026         8.8716 
 183   0.0000       0.328667         8.9435 
 184   0.0000       0.331336         9.0161 
 185   0.0000       0.333497         9.0749 
 186   0.0000       0.336015         9.1434 
 187   0.0000       0.342318         9.3150 
 188   0.0000       0.347516         9.4564 
 189   0.0000       0.350576         9.5397 
 190   0.0000       0.351497         9.5647 
 191   0.0000       0.355053         9.6615 
 192   0.0000       0.357639         9.7319 
 193   0.0000       0.360865         9.8196 
 194   0.0000       0.364518         9.9190 
 195   0.0000       0.368774        10.0349 
 196   0.0000       0.370745        10.0885 
 197   0.0000       0.378175        10.2907 
 198   0.0000       0.380053        10.3418 
 199   0.0000       0.381953        10.3935 
 200   0.0000       0.385749        10.4968 
 201   0.0000       0.388466        10.5707 
 202   0.0000       0.390145        10.6164 
 203   0.0000       0.395376        10.7587 
 204   0.0000       0.397467        10.8156 
 205   0.0000       0.399192        10.8626 
 206   0.0000       0.399508        10.8712 
 207   0.0000       0.403451        10.9785 
 208   0.0000       0.408355        11.1119 
 209   0.0000       0.410951        11.1825 
 210   0.0000       0.416005        11.3201 
 211   0.0000       0.420535        11.4433 
 212   0.0000       0.423401        11.5213 
 213   0.0000       0.427796        11.6409 
 214   0.0000       0.430453        11.7132 
 215   0.0000       0.431922        11.7532 
 216   0.0000       0.432827        11.7778 
 217   0.0000       0.435709        11.8562 
 218   0.0000       0.436625        11.8812 
 219   0.0000       0.441063        12.0019 
 220   0.0000       0.446336        12.1454 
 221   0.0000       0.449476        12.2309 
 222   0.0000       0.452934        12.3250 
 223   0.0000       0.456785        12.4297 
 224   0.0000       0.457371        12.4457 
 225   0.0000       0.462644        12.5892 
 226   0.0000       0.465274        12.6607 
 227   0.0000       0.469128        12.7656 
 228   0.0000       0.471528        12.8309 
 229   0.0000       0.477069        12.9817 
 230   0.0000       0.479356        13.0439 
 231   0.0000       0.480341        13.0707 
 232   0.0000       0.486015        13.2251 
 233   0.0000       0.488326        13.2880 
 234   0.0000       0.490803        13.3554 
 235   0.0000       0.495272        13.4770 
 236   0.0000       0.497727        13.5439 
 237   0.0000       0.502800        13.6819 
 238   0.0000       0.503008        13.6875 
 239   0.0000       0.503949        13.7131 
 240   0.0000       0.508752        13.8438 
 241   0.0000       0.510790        13.8993 
 242   0.0000       0.517614        14.0850 
 243   0.0000       0.520968        14.1763 
 244   0.0000       0.523553        14.2466 
 245   0.0000       0.527859        14.3638 
 246   0.0000       0.532798        14.4982 
 247   0.0000       0.536724        14.6050 
 248   0.0000       0.540284        14.7019 
 249   0.0000       0.542687        14.7673 
 250   0.0000       0.545231        14.8365 
 251   0.0000       0.545746        14.8505 
 252   0.0000       0.548750        14.9322 
 253   0.0000       0.550846        14.9893 
 254   0.0000       0.557194        15.1620 
 255   0.0000       0.560102        15.2412 
 256   0.0000       0.565503        15.3881 
 257   0.0000       0.567859        15.4522 
 258   0.0000       0.572189        15.5701 
 259   0.0000       0.577995        15.7280 
 260   0.0000       0.583360        15.8740 
 261   0.0000       0.583970        15.8906 
 262   0.0000       0.587400        15.9840 
 263   0.0000       0.590389        16.0653 
 264   0.0000       0.594843        16.1865 
 265   0.0000       0.599917        16.3246 
 266   0.0000       0.604507        16.4495 
 267   0.0000       0.608193        16.5498 
 268   0.0000       0.618353        16.8263 
 269   0.0000       0.625203        17.0126 
 270   0.0000       0.628488        17.1020 
 271   0.0000       0.636468        17.3192 
 272   0.0000       0.641396        17.4533 
 273   0.0000       0.645052        17.5528 
 274   0.0000       0.651155        17.7188 
 275   0.0000       0.652910        17.7666 
 276   0.0000       0.657553        17.8929 
 277   0.0000       0.660421        17.9710 
 278   0.0000       0.665702        18.1147 
 279   0.0000       0.674287        18.3483 
 280   0.0000       0.677302        18.4303 
 281   0.0000       0.678230        18.4556 
 282   0.0000       0.680669        18.5219 
 283   0.0000       0.686140        18.6708 
 284   0.0000       0.687307        18.7026 
 285   0.0000       0.689332        18.7577 
 286   0.0000       0.691642        18.8205 
 287   0.0000       0.694110        18.8877 
 288   0.0000       0.697045        18.9676 
 289   0.0000       0.704359        19.1666 
 290   0.0000       0.706608        19.2278 
 291   0.0000       0.710678        19.3385 
 292   0.0000       0.715166        19.4607 
 293   0.0000       0.718602        19.5542 
 294   0.0000       0.725381        19.7386 
 295   0.0000       0.729469        19.8499 
 296   0.0000       0.734840        19.9960 
 297   0.0000       0.739176        20.1140 
 298   0.0000       0.741475        20.1766 
 299   0.0000       0.744007        20.2455 
 300   0.0000       0.746552        20.3147 
 301   0.0000       0.749137        20.3851 
 302   0.0000       0.751252        20.4426 
 303   0.0000       0.753465        20.5028 
 304   0.0000       0.757139        20.6028 
 305   0.0000       0.759391        20.6641 
 306   0.0000       0.767131        20.8747 
 307   0.0000       0.770921        20.9778 
 308   0.0000       0.777375        21.1535 
 309   0.0000       0.779561        21.2129 
 310   0.0000       0.783352        21.3161 
 311   0.0000       0.787186        21.4204 
 312   0.0000       0.791909        21.5489 
 313   0.0000       0.793824        21.6010 
 314   0.0000       0.800419        21.7805 
 315   0.0000       0.801158        21.8006 
 316   0.0000       0.804087        21.8803 
 317   0.0000       0.809183        22.0190 
 318   0.0000       0.814628        22.1672 
 319   0.0000       0.819325        22.2950 
 320   0.0000       0.823162        22.3994 
 321   0.0000       0.828134        22.5347 
 322   0.0000       0.832087        22.6422 
 323   0.0000       0.840817        22.8798 
 324   0.0000       0.841858        22.9081 
 325   0.0000       0.851235        23.1633 
 326   0.0000       0.852571        23.1996 
 327   0.0000       0.856994        23.3200 
 328   0.0000       0.861711        23.4483 
 329   0.0000       0.869227        23.6529 
 330   0.0000       0.874373        23.7929 
 331   0.0000       0.876451        23.8495 
 332   0.0000       0.879296        23.9269 
 333   0.0000       0.888726        24.1835 
 334   0.0000       0.892695        24.2915 
 335   0.0000       0.894682        24.3455 
 336   0.0000       0.897964        24.4348 
 337   0.0000       0.902281        24.5523 
 338   0.0000       0.904463        24.6117 
 339   0.0000       0.912397        24.8276 
 340   0.0000       0.919883        25.0313 
 341   0.0000       0.925521        25.1847 
 342   0.0000       0.929725        25.2991 
 343   0.0000       0.932644        25.3785 
 344   0.0000       0.934794        25.4370 
 345   0.0000       0.938649        25.5419 
 346   0.0000       0.945747        25.7351 
 347   0.0000       0.948861        25.8198 
 348   0.0000       0.954193        25.9649 
 349   0.0000       0.959021        26.0963 
 350   0.0000       0.962671        26.1956 
 351   0.0000       0.964846        26.2548 
 352   0.0000       0.975544        26.5459 
 353   0.0000       0.984034        26.7769 
 354   0.0000       0.987609        26.8742 
 355   0.0000       0.990634        26.9565 
 356   0.0000       0.994474        27.0610 
 357   0.0000       1.001731        27.2585 
 358   0.0000       1.007948        27.4277 
 359   0.0000       1.019097        27.7310 
 360   0.0000       1.024582        27.8803 
 361   0.0000       1.030452        28.0400 
 362   0.0000       1.039821        28.2950 
 363   0.0000       1.043742        28.4017 
 364   0.0000       1.048324        28.5264 
 365   0.0000       1.058753        28.8101 
 366   0.0000       1.064897        28.9773 
 367   0.0000       1.070197        29.1215 
 368   0.0000       1.077236        29.3131 
 369   0.0000       1.083248        29.4767 
 370   0.0000       1.091122        29.6909 
 371   0.0000       1.097107        29.8538 
 372   0.0000       1.101860        29.9831 
 373   0.0000       1.107502        30.1366 
 374   0.0000       1.112126        30.2625 
 375   0.0000       1.116311        30.3764 
 376   0.0000       1.119058        30.4511 
 377   0.0000       1.133570        30.8460 
 378   0.0000       1.138489        30.9799 
 379   0.0000       1.141490        31.0615 
 380   0.0000       1.146802        31.2061 
 381   0.0000       1.160995        31.5923 
 382   0.0000       1.165713        31.7207 
 383   0.0000       1.170779        31.8585 
 384   0.0000       1.178505        32.0688 
 385   0.0000       1.181923        32.1618 
 386   0.0000       1.187370        32.3100 
 387   0.0000       1.194275        32.4979 
 388   0.0000       1.199155        32.6307 
 389   0.0000       1.209456        32.9110 
 390   0.0000       1.219704        33.1898 
 391   0.0000       1.226836        33.3839 
 392   0.0000       1.233958        33.5777 
 393   0.0000       1.245740        33.8983 
 394   0.0000       1.247685        33.9512 
 395   0.0000       1.253406        34.1069 
 396   0.0000       1.261160        34.3179 
 397   0.0000       1.267535        34.4914 
 398   0.0000       1.269971        34.5577 
 399   0.0000       1.281184        34.8628 
 400   0.0000       1.283668        34.9304 
 401   0.0000       1.285016        34.9671 
 402   0.0000       1.302453        35.4415 
 403   0.0000       1.306607        35.5546 
 404   0.0000       1.311925        35.6993 
 405   0.0000       1.318989        35.8915 
 406   0.0000       1.324589        36.0439 
 407   0.0000       1.330620        36.2080 
 408   0.0000       1.335994        36.3543 
 409   0.0000       1.341817        36.5127 
 410   0.0000       1.346152        36.6307 
 411   0.0000       1.351078        36.7647 
 412   0.0000       1.362749        37.0823 
 413   0.0000       1.368327        37.2341 
 414   0.0000       1.369580        37.2682 
 415   0.0000       1.374428        37.4001 
 416   0.0000       1.379690        37.5433 
 417   0.0000       1.385087        37.6901 
 418   0.0000       1.395263        37.9670 
 419   0.0000       1.395419        37.9713 
 420   0.0000       1.403789        38.1990 
 421   0.0000       1.410394        38.3788 
 422   0.0000       1.418136        38.5895 
 423   0.0000       1.424757        38.7696 
 424   0.0000       1.426902        38.8280 
 425   0.0000       1.433367        39.0039 
 426   0.0000       1.442344        39.2482 
 427   0.0000       1.452347        39.5204 
 428   0.0000       1.452951        39.5368 
 429   0.0000       1.462670        39.8013 
 430   0.0000       1.471780        40.0492 
 431   0.0000       1.472683        40.0737 
 432   0.0000       1.479863        40.2691 
 433   0.0000       1.485436        40.4208 
 434   0.0000       1.489117        40.5209 
 435   0.0000       1.498062        40.7643 
 436   0.0000       1.502110        40.8745 
 437   0.0000       1.504342        40.9352 
 438   0.0000       1.508586        41.0507 
 439   0.0000       1.511859        41.1398 
 440   0.0000       1.520340        41.3706 
 441   0.0000       1.526007        41.5248 
 442   0.0000       1.530926        41.6586 
 443   0.0000       1.539771        41.8993 
 444   0.0000       1.541234        41.9391 
 445   0.0000       1.548583        42.1391 
 446   0.0000       1.549018        42.1509 
 447   0.0000       1.553951        42.2852 
 448   0.0000       1.556911        42.3657 
 449   0.0000       1.563856        42.5547 
 450   0.0000       1.567997        42.6674 
 451   0.0000       1.568737        42.6875 
 452   0.0000       1.570178        42.7267 
 453   0.0000       1.570579        42.7376 
 454   0.0000       1.581214        43.0270 
 455   0.0000       1.587717        43.2040 
 456   0.0000       1.597931        43.4819 
 457   0.0000       1.604468        43.6598 
 458   0.0000       1.605498        43.6878 
 459   0.0000       1.608089        43.7583 
 460   0.0000       1.610493        43.8237 
 461   0.0000       1.612719        43.8843 
 462   0.0000       1.613696        43.9109 
 463   0.0000       1.616719        43.9932 
 464   0.0000       1.623389        44.1746 
 465   0.0000       1.627815        44.2951 
 466   0.0000       1.632383        44.4194 
 467   0.0000       1.636791        44.5393 
 468   0.0000       1.642208        44.6868 
 469   0.0000       1.647602        44.8335 
 470   0.0000       1.650529        44.9132 
 471   0.0000       1.651619        44.9428 
 472   0.0000       1.654610        45.0242 
 473   0.0000       1.664100        45.2825 
 474   0.0000       1.667388        45.3719 
 475   0.0000       1.672307        45.5058 
 476   0.0000       1.681346        45.7517 
 477   0.0000       1.686842        45.9013 
 478   0.0000       1.688269        45.9401 
 479   0.0000       1.692025        46.0423 
 480   0.0000       1.694302        46.1043 
 481   0.0000       1.699015        46.2325 
 482   0.0000       1.701495        46.3000 
 483   0.0000       1.704943        46.3939 
 484   0.0000       1.707055        46.4513 
 485   0.0000       1.715863        46.6910 
 486   0.0000       1.720335        46.8127 
 487   0.0000       1.725994        46.9667 
 488   0.0000       1.730397        47.0865 
 489   0.0000       1.733063        47.1590 
 490   0.0000       1.738947        47.3192 
 491   0.0000       1.743943        47.4551 
 492   0.0000       1.746132        47.5147 
 493   0.0000       1.750704        47.6391 
 494   0.0000       1.767483        48.0956 
 495   0.0000       1.773375        48.2560 
 496   0.0000       1.779604        48.4255 
 497   0.0000       1.781321        48.4722 
 498   0.0000       1.784711        48.5645 
 499   0.0000       1.792610        48.7794 
 500   0.0000       1.794356        48.8269 
 501   0.0000       1.801195        49.0130 
 502   0.0000       1.803934        49.0875 
 503   0.0000       1.807314        49.1795 
 504   0.0000       1.807661        49.1890 
 505   0.0000       1.810126        49.2560 
 506   0.0000       1.815934        49.4141 
 507   0.0000       1.818423        49.4818 
 508   0.0000       1.823603        49.6228 
 509   0.0000       1.827954        49.7412 
 510   0.0000       1.837268        49.9946 
 511   0.0000       1.842149        50.1274 
 512   0.0000       1.850300        50.3492 
 513   0.0000       1.851565        50.3836 
 514   0.0000       1.858358        50.5685 
 515   0.0000       1.865433        50.7610 
 516   0.0000       1.871509        50.9264 
 517   0.0000       1.872232        50.9460 
 518   0.0000       1.873842        50.9898 
 519   0.0000       1.881295        51.1926 
 520   0.0000       1.888673        51.3934 
 521   0.0000       1.891805        51.4786 
 522   0.0000       1.898675        51.6656 
 523   0.0000       1.906094        51.8674 
 524   0.0000       1.907948        51.9179 
 525   0.0000       1.918689        52.2102 
 526   0.0000       1.920757        52.2665 
 527   0.0000       1.922809        52.3223 
 528   0.0000       1.925261        52.3890 
 529   0.0000       1.928524        52.4778 
 530   0.0000       1.944277        52.9065 
 531   0.0000       1.947883        53.0046 
 532   0.0000       1.960416        53.3456 
 533   0.0000       1.963817        53.4382 
 534   0.0000       1.966471        53.5104 
 535   0.0000       1.970172        53.6111 
 536   0.0000       1.977848        53.8200 
 537   0.0000       1.980420        53.8900 
 538   0.0000       1.999601        54.4119 
 539   0.0000       2.006465        54.5987 
 540   0.0000       2.017068        54.8872 
 541   0.0000       2.020928        54.9923 
 542   0.0000       2.023074        55.0506 
 543   0.0000       2.031736        55.2863 
 544   0.0000       2.034748        55.3683 
 545   0.0000       2.039538        55.4986 
 546   0.0000       2.046922        55.6996 
 547   0.0000       2.049413        55.7674 
 548   0.0000       2.054118        55.8954 
 549   0.0000       2.066226        56.2249 
 550   0.0000       2.071433        56.3666 
 551   0.0000       2.090003        56.8719 
 552   0.0000       2.097565        57.0777 
 553   0.0000       2.099492        57.1301 
 554   0.0000       2.109813        57.4109 
 555   0.0000       2.111748        57.4636 
 556   0.0000       2.113791        57.5192 
 557   0.0000       2.125264        57.8314 
 558   0.0000       2.131163        57.9919 
 559   0.0000       2.132928        58.0399 
 560   0.0000       2.134443        58.0812 
 561   0.0000       2.145034        58.3693 
 562   0.0000       2.151940        58.5573 
 563   0.0000       2.152986        58.5857 
 564   0.0000       2.160758        58.7972 
 565   0.0000       2.171609        59.0925 
 566   0.0000       2.176489        59.2253 
 567   0.0000       2.182982        59.4020 
 568   0.0000       2.186455        59.4965 
 569   0.0000       2.192386        59.6579 
 570   0.0000       2.195166        59.7335 
 571   0.0000       2.200025        59.8657 
 572   0.0000       2.209433        60.1217 
 573   0.0000       2.210948        60.1630 
 574   0.0000       2.216001        60.3004 
 575   0.0000       2.233018        60.7635 
 576   0.0000       2.239915        60.9512 
 577   0.0000       2.245964        61.1158 
 578   0.0000       2.256147        61.3929 
 579   0.0000       2.262340        61.5614 
 580   0.0000       2.269070        61.7445 
 581   0.0000       2.279609        62.0313 
 582   0.0000       2.282348        62.1058 
 583   0.0000       2.291720        62.3609 
 584   0.0000       2.298823        62.5542 
 585   0.0000       2.299072        62.5609 
 586   0.0000       2.306618        62.7663 
 587   0.0000       2.311324        62.8943 
 588   0.0000       2.312714        62.9321 
 589   0.0000       2.324685        63.2579 
 590   0.0000       2.327484        63.3340 
 591   0.0000       2.335768        63.5595 
 592   0.0000       2.338994        63.6473 
 593   0.0000       2.344001        63.7835 
 594   0.0000       2.356163        64.1145 
 595   0.0000       2.359875        64.2155 
 596   0.0000       2.361625        64.2631 
 597   0.0000       2.367386        64.4198 
 598   0.0000       2.371251        64.5250 
 599   0.0000       2.382574        64.8331 
 600   0.0000       2.402145        65.3657 
 601   0.0000       2.416082        65.7449 
 602   0.0000       2.421595        65.8949 
 603   0.0000       2.428126        66.0727 
 604   0.0000       2.435228        66.2659 
 605   0.0000       2.436724        66.3066 
 606   0.0000       2.458273        66.8930 
 607   0.0000       2.461816        66.9894 
 608   0.0000       2.469961        67.2111 
 609   0.0000       2.494357        67.8749 
 610   0.0000       2.502773        68.1039 
 611   0.0000       2.510367        68.3106 
 612   0.0000       2.517448        68.5033 
 613   0.0000       2.526803        68.7578 
 614   0.0000       2.528309        68.7988 
 615   0.0000       2.537056        69.0368 
 616   0.0000       2.546846        69.3032 
 617   0.0000       2.552300        69.4516 
 618   0.0000       2.574215        70.0479 
 619   0.0000       2.579574        70.1938 
 620   0.0000       2.581131        70.2362 
 621   0.0000       2.589222        70.4563 
 622   0.0000       2.596594        70.6569 
 623   0.0000       2.601498        70.7904 
 624   0.0000       2.618274        71.2469 
 625   0.0000       2.620981        71.3205 
 626   0.0000       2.630306        71.5743 
 627   0.0000       2.634768        71.6957 
 628   0.0000       2.641492        71.8787 
 629   0.0000       2.649185        72.0880 
 630   0.0000       2.654045        72.2202 
 631   0.0000       2.661015        72.4099 
 632   0.0000       2.668203        72.6055 
 633   0.0000       2.674260        72.7703 
 634   0.0000       2.679497        72.9128 
 635   0.0000       2.691749        73.2462 
 636   0.0000       2.694405        73.3185 
 637   0.0000       2.702433        73.5370 
 638   0.0000       2.707039        73.6623 
 639   0.0000       2.711732        73.7900 
 640   0.0000       2.721168        74.0468 
 641   0.0000       2.725083        74.1533 
 642   0.0000       2.731164        74.3188 
 643   0.0000       2.735019        74.4236 
 644   0.0000       2.739308        74.5404 
 645   0.0000       2.742095        74.6162 
 646   0.0000       2.753634        74.9302 
 647   0.0000       2.756797        75.0163 
 648   0.0000       2.760722        75.1231 
 649   0.0000       2.769540        75.3630 
 650   0.0000       2.776285        75.5466 
 651   0.0000       2.779886        75.6445 
 652   0.0000       2.781215        75.6807 
 653   0.0000       2.784197        75.7619 
 654   0.0000       2.792755        75.9947 
 655   0.0000       2.794192        76.0338 
 656   0.0000       2.803800        76.2953 
 657   0.0000       2.808647        76.4272 
 658   0.0000       2.814933        76.5982 
 659   0.0000       2.818801        76.7035 
 660   0.0000       2.834172        77.1218 
 661   0.0000       2.841037        77.3086 
 662   0.0000       2.844188        77.3943 
 663   0.0000       2.849015        77.5256 
 664   0.0000       2.854223        77.6674 
 665   0.0000       2.866885        78.0119 
 666   0.0000       2.876195        78.2653 
 667   0.0000       2.878309        78.3228 
 668   0.0000       2.883334        78.4595 
 669   0.0000       2.887801        78.5811 
 670   0.0000       2.891744        78.6884 
 671   0.0000       2.896796        78.8258 
 672   0.0000       2.898002        78.8586 
 673   0.0000       2.903288        79.0025 
 674   0.0000       2.905248        79.0558 
 675   0.0000       2.908543        79.1455 
 676   0.0000       2.914150        79.2981 
 677   0.0000       2.916051        79.3498 
 678   0.0000       2.931787        79.7780 
 679   0.0000       2.940130        80.0050 
 680   0.0000       2.944182        80.1153 
 681   0.0000       2.947865        80.2155 
 682   0.0000       2.953830        80.3778 
 683   0.0000       2.954754        80.4029 
 684   0.0000       2.962512        80.6141 
 685   0.0000       2.974910        80.9514 
 686   0.0000       2.979635        81.0800 
 687   0.0000       2.983779        81.1928 
 688   0.0000       2.989995        81.3619 
 689   0.0000       2.993365        81.4536 
 690   0.0000       3.005336        81.7794 
 691   0.0000       3.007939        81.8502 
 692   0.0000       3.012573        81.9763 
 693   0.0000       3.015466        82.0550 
 694   0.0000       3.024195        82.2925 
 695   0.0000       3.040137        82.7263 
 696   0.0000       3.044851        82.8546 
 697   0.0000       3.050569        83.0102 
 698   0.0000       3.053378        83.0867 
 699   0.0000       3.055254        83.1377 
 700   0.0000       3.058032        83.2133 
 701   0.0000       3.061552        83.3091 
 702   0.0000       3.070370        83.5490 
 703   0.0000       3.072367        83.6034 
 704   0.0000       3.080524        83.8253 
 705   0.0000       3.087737        84.0216 
 706   0.0000       3.090347        84.0926 
 707   0.0000       3.093991        84.1918 
 708   0.0000       3.100745        84.3756 
 709   0.0000       3.106851        84.5417 
 710   0.0000       3.115477        84.7764 
 711   0.0000       3.121576        84.9424 
 712   0.0000       3.125572        85.0511 
 713   0.0000       3.130468        85.1844 
 714   0.0000       3.136840        85.3578 
 715   0.0000       3.143043        85.5265 
 716   0.0000       3.150487        85.7291 
 717   0.0000       3.153198        85.8029 
 718   0.0000       3.154866        85.8483 
 719   0.0000       3.157128        85.9098 
 720   0.0000       3.163400        86.0805 
 721   0.0000       3.168757        86.2263 
 722   0.0000       3.172737        86.3346 
 723   0.0000       3.182396        86.5974 
 724   0.0000       3.189669        86.7953 
 725   0.0000       3.190511        86.8182 
 726   0.0000       3.194189        86.9183 
 727   0.0000       3.196008        86.9678 
 728   0.0000       3.197929        87.0201 
 729   0.0000       3.215898        87.5090 
 730   0.0000       3.222469        87.6878 
 731   0.0000       3.228718        87.8579 
 732   0.0000       3.237439        88.0952 
 733   0.0000       3.240772        88.1859 
 734   0.0000       3.241188        88.1972 
 735   0.0000       3.245296        88.3090 
[...]
 150   8.714     142.3   0.016487   0.013122   6.075834   4.884664     0.06 (  62->  80)    0.05 (  68->  75)    0.03 (  62->  75)
 151   8.722     142.2   0.003505   0.003412  -4.898437  -3.440559     0.08 (  67->  84)    0.06 (  70->  78)    0.03 (  67->  93)
 152   8.747     141.8   0.006496   0.005162  -3.674566  -3.546668     0.07 (  67->  84)    0.04 (  70->  78)    0.03 (  69->  78)
 153   8.759     141.5   0.014679   0.015265  15.068387  14.666997     0.03 (  61->  79)    0.03 (  61->  77)    0.03 (  59->  75)
 154   8.772     141.3   0.004844   0.004485   9.310212   8.518865     0.05 (  67->  98)    0.04 (  70-> 100)    0.04 (  63->  78)
 155   8.783     141.2   0.060666   0.056542  40.460923  39.284058     0.16 (  70->  99)    0.04 (  68->  96)    0.04 (  69-> 100)
 156   8.786     141.1   0.004180   0.003919  15.450577  13.784612     0.05 (  70-> 100)    0.03 (  67->  87)    0.02 (  69->  94)
 157   8.797     140.9   0.024106   0.023404  22.862824  22.643099     0.07 (  67->  98)    0.03 (  61->  77)    0.03 (  62->  77)
 158   8.803     140.8   0.021744   0.019021   9.120962   7.579260     0.07 (  67->  98)    0.04 (  70-> 100)    0.04 (  70->  78)
 159   8.819     140.6   0.016099   0.015288  -7.104261  -6.103926     0.04 (  60->  79)    0.04 (  65->  90)    0.03 (  63->  90)
 160   8.826     140.5   0.017760   0.015842  -13.468631  -14.387982     0.05 (  67->  98)    0.04 (  69->  78)    0.03 (  54->  72)
 161   8.843     140.2   0.002749   0.002420  12.083786  10.996931     0.08 (  63->  87)    0.07 (  64->  87)    0.06 (  63->  78)
 162   8.857     140.0   0.003623   0.003429  -8.088995  -7.650028     0.06 (  66->  93)    0.05 (  66->  91)    0.03 (  66->  89)
 163   8.867     139.8   0.019635   0.017572  -12.283515  -12.055184     0.22 (  67->  98)    0.08 (  69->  78)    0.03 (  56->  91)
 164   8.870     139.8   0.055019   0.048414  -44.022033  -36.803560     0.06 (  67->  84)    0.04 (  36->  72)    0.03 (  54->  72)
 165   8.879     139.6   0.002926   0.002613   8.920863   8.795919     0.17 (  66->  93)    0.08 (  66->  91)    0.06 (  66->  92)
 166   8.891     139.4   0.024235   0.021490  40.352580  37.882704     0.07 (  62->  83)    0.06 (  65->  83)    0.02 (  62->  79)
 167   8.903     139.3   0.000945   0.001013   0.262352   0.049765     0.09 (  71->  84)    0.07 (  65->  84)    0.06 (  68->  84)
 168   8.913     139.1   0.025942   0.020753  28.253745  23.005177     0.03 (  60->  79)    0.02 (  61->  75)    0.02 (  65->  82)
 169   8.929     138.9   0.008090   0.007816   1.524957   1.462499     0.04 (  54->  72)    0.04 (  59->  76)    0.03 (  58->  76)
 170   8.939     138.7   0.009553   0.009012  -5.675452  -3.786907     0.07 (  54->  72)    0.05 (  35->  72)    0.03 (  69->  78)
 171   8.961     138.4   0.005337   0.004590  13.023469  11.519034     0.04 (  69->  80)    0.03 (  64->  85)    0.03 (  63->  85)
 172   8.974     138.2   0.012042   0.010394  -6.403851  -6.579374     0.04 (  59->  76)    0.03 (  58->  76)    0.03 (  64->  87)
 173   8.993     137.9   0.011410   0.009867   9.269289  10.131292     0.09 (  56->  73)    0.05 (  67->  75)    0.03 (  67-> 103)
 174   8.997     137.8   0.000529   0.000278  -2.977907  -2.679898     0.06 (  69-> 100)    0.04 (  70-> 101)    0.04 (  70-> 100)
 175   9.003     137.7   0.015468   0.012064  14.737249  12.607370     0.04 (  70->  82)    0.03 (  71->  87)    0.02 (  67->  93)
 176   9.026     137.4   0.016411   0.014205   7.502538   9.075502     0.08 (  69->  99)    0.05 (  69->  88)    0.04 (  68->  88)
 177   9.033     137.3   0.002969   0.001920   0.111319   0.392381     0.05 (  56->  76)    0.05 (  62->  81)    0.04 (  67->  84)
 178   9.039     137.2   0.069742   0.063119  12.646928  10.972538     0.03 (  66->  87)    0.03 (  70-> 101)    0.03 (  57->  74)
 179   9.048     137.0   0.016485   0.014584  -40.469527  -38.909343     0.03 (  38->  72)    0.03 (  66->  75)    0.03 (  55->  72)
 180   9.060     136.8   0.031853   0.029348  72.637661  68.538376     0.07 (  53->  72)    0.04 (  55->  72)    0.03 (  66->  75)
 181   9.073     136.7   0.019007   0.017867  25.555542  25.286595     0.05 (  53->  72)    0.03 (  66->  75)    0.02 (  66->  74)
 182   9.088     136.4   0.004757   0.004152  -13.520807  -12.394095     0.04 (  36->  72)    0.04 (  56->  73)    0.03 (  37->  72)
 183   9.094     136.3   0.002479   0.002760  -16.355636  -18.608502     0.05 (  70->  94)    0.04 (  36->  72)    0.03 (  70-> 101)
 184   9.107     136.1   0.007992   0.006995  -38.474036  -36.508357     0.19 (  66->  91)    0.17 (  66->  89)    0.03 (  66->  84)
 185   9.108     136.1   0.005654   0.006169  -34.020212  -33.464097     0.04 (  56->  76)    0.03 (  62->  81)    0.02 (  68->  87)
 186   9.113     136.0   0.005964   0.004637  -14.420928  -13.059887     0.07 (  66->  89)    0.07 (  66->  91)    0.03 (  70-> 101)
 187   9.121     135.9   0.023064   0.019087  26.583178  23.732659     0.03 (  66->  89)    0.03 (  69->  80)    0.03 (  66->  91)
 188   9.138     135.7   0.015977   0.014211   0.547734   0.456340     0.05 (  55->  72)    0.04 (  54->  72)    0.04 (  55->  80)
 189   9.154     135.4   0.122793   0.112998  -21.738652  -21.410415     0.15 (  56->  76)    0.08 (  63->  84)    0.06 (  64->  84)
 190   9.182     135.0   0.002299   0.002071   9.791281   9.502958     0.11 (  51->  77)    0.10 (  53->  72)    0.06 (  51->  75)
 191   9.194     134.9   0.021319   0.019935  17.519358  18.198119     0.03 (  68->  87)    0.03 (  70-> 104)    0.03 (  71->  85)
 192   9.200     134.8   0.004928   0.004497  -0.977096   0.008735     0.16 (  53->  80)    0.07 (  53->  77)    0.05 (  53->  72)
 193   9.218     134.5   0.005221   0.004614   8.844658   7.812513     0.04 (  71-> 101)    0.04 (  71->  86)    0.03 (  61->  79)
 194   9.234     134.3   0.009167   0.007874  -12.414057  -11.552846     0.15 (  56->  73)    0.07 (  53->  80)    0.05 (  56->  75)
 195   9.238     134.2   0.051639   0.046675  -68.499641  -64.957001     0.05 (  35->  72)    0.04 (  56->  73)    0.02 (  61->  74)
 196   9.244     134.1   0.005199   0.004784  -8.728735  -8.477131     0.04 (  58->  74)    0.03 (  66->  93)    0.03 (  59->  79)
 197   9.249     134.1   0.014737   0.013624  -4.994337  -5.453909     0.14 (  66->  93)    0.08 (  66->  94)    0.06 (  66->  91)
 198   9.271     133.7   0.006494   0.005922   4.338639   4.551462     0.04 (  69-> 101)    0.02 (  70-> 104)    0.02 (  66->  93)
 199   9.289     133.5   0.018968   0.017266  -21.498516  -20.494197     0.06 (  57->  74)    0.03 (  62->  79)    0.03 (  59->  73)
 200   9.299     133.3   0.001898   0.001989   1.418801   1.024968     0.08 (  68->  88)    0.07 (  69-> 102)    0.04 (  70-> 105)
 201   9.322     133.0   0.052869   0.051222   4.577062   4.299264     0.06 (  52->  78)    0.03 (  68->  78)    0.03 (  60->  78)
 202   9.326     133.0   0.002283   0.001568  -5.419709  -3.459324     0.07 (  62->  79)    0.05 (  52->  78)    0.03 (  62->  81)
 203   9.337     132.8   0.028486   0.026040  -9.639303  -9.194269     0.04 (  65->  76)    0.03 (  68->  76)    0.03 (  61->  76)
 204   9.347     132.7   0.059678   0.050732  36.893411  33.547481     0.04 (  54->  77)    0.03 (  62->  75)    0.02 (  61->  90)
 205   9.364     132.4   0.031628   0.026711  -3.058664  -3.160805     0.11 (  56->  76)    0.06 (  50->  76)    0.04 (  67->  93)
 206   9.369     132.3   0.009797   0.007169  -17.352515  -14.922049     0.08 (  56->  76)    0.04 (  67->  93)    0.03 (  69-> 102)
 207   9.375     132.3   0.029186   0.023583  -65.754333  -57.095699     0.06 (  50->  76)    0.04 (  48->  77)    0.03 (  58->  79)
 208   9.392     132.0   0.064925   0.061787  12.238092   5.951921     0.04 (  56->  76)    0.03 (  67->  93)    0.02 (  62->  79)
 209   9.396     132.0   0.029129   0.028180  14.658024  15.820678     0.11 (  67->  77)    0.04 (  64->  81)    0.03 (  65->  80)
 210   9.421     131.6   0.009802   0.009045  18.533883  17.229651     0.03 (  64->  80)    0.03 (  63->  81)    0.03 (  55->  80)
 211   9.433     131.4   0.128057   0.102898  18.011964  15.486422     0.19 (  50->  76)    0.05 (  60->  78)    0.04 (  49->  76)
 212   9.437     131.4   0.063550   0.055320  -4.693042  -5.883668     0.10 (  67->  77)    0.03 (  68->  88)    0.03 (  69->  98)
 213   9.445     131.3   0.039484   0.033642   9.124905   7.302336     0.06 (  46->  74)    0.05 (  45->  73)    0.04 (  46->  75)
 214   9.448     131.2   0.026240   0.024537   3.243865   5.207112     0.05 (  67->  77)    0.04 (  67->  79)    0.03 (  69->  98)
 215   9.458     131.1   0.024120   0.024066   6.566266   7.871571     0.04 (  54->  73)    0.03 (  47->  73)    0.03 (  60->  78)
 216   9.470     130.9   0.034870   0.033066  -22.335032  -21.788582     0.04 (  61->  81)    0.03 (  67->  79)    0.02 (  61->  80)
 217   9.489     130.7   0.003053   0.002735   0.860646   0.757653     0.16 (  69->  98)    0.07 (  70->  98)    0.05 (  66->  91)
 218   9.497     130.6   0.007669   0.007952  -1.733698  -1.702434     0.05 (  69-> 102)    0.05 (  69->  98)    0.03 (  69-> 105)
 219   9.519     130.2   0.016751   0.013819  41.816697  38.186471     0.06 (  53->  80)    0.04 (  69->  81)    0.02 (  44->  73)
 220   9.533     130.1   0.004813   0.003476  -11.065769  -9.307913     0.05 (  68->  90)    0.03 (  71-> 106)    0.02 (  71->  84)
 221   9.537     130.0   0.043039   0.035086  -4.551333  -4.921090     0.05 (  71->  84)    0.03 (  49->  77)    0.02 (  50->  76)
 222   9.552     129.8   0.003694   0.003057  10.424696   8.830453     0.07 (  60->  84)    0.06 (  53->  80)    0.06 (  71->  84)
 223   9.562     129.7   0.051149   0.043094  17.516403  16.801984     0.05 (  53->  80)    0.03 (  71->  84)    0.02 (  71-> 106)
 224   9.579     129.4   0.045310   0.039400  -11.605275  -11.438293     0.04 (  54->  73)    0.03 (  62->  75)    0.03 (  54->  75)
 225   9.579     129.4   0.013286   0.010551  -15.295587  -13.922002     0.18 (  71->  84)    0.08 (  71->  85)    0.06 (  60->  84)
 226   9.588     129.3   0.009121   0.008808   9.903096   8.819950     0.06 (  60->  78)    0.06 (  52->  78)    0.05 (  47->  74)
 227   9.596     129.2   0.018523   0.015467   3.391078   2.670450     0.04 (  61->  87)    0.03 (  61->  75)    0.02 (  60->  87)
 228   9.609     129.0   0.032352   0.026967  -7.211693  -4.941738     0.07 (  67->  89)    0.04 (  63->  84)    0.03 (  67->  94)
 229   9.619     128.9   0.032894   0.028835  27.266004  24.425173     0.09 (  60->  78)    0.05 (  52->  78)    0.05 (  61->  78)
 230   9.635     128.7   0.010353   0.008694  -0.390229  -0.767715     0.04 (  71-> 105)    0.04 (  60->  85)    0.03 (  62->  79)
 231   9.645     128.5   0.017037   0.014853  -18.654206  -17.954390     0.04 (  55->  73)    0.04 (  55->  77)    0.04 (  51->  72)
 232   9.666     128.3   0.000489   0.000400   3.204713   3.298494     0.04 (  61->  85)    0.04 (  60->  85)    0.03 (  57->  79)
 233   9.671     128.2   0.006659   0.004638  -27.534446  -24.391778     0.04 (  50->  78)    0.04 (  51->  72)    0.03 (  41->  72)
 234   9.677     128.1   0.017050   0.014292   2.800104   2.580412     0.04 (  71-> 107)    0.03 (  50->  78)    0.02 (  68->  90)
 235   9.692     127.9   0.003604   0.002804   8.008661   7.160072     0.05 (  51->  72)    0.04 (  64->  82)    0.03 (  55->  73)
 236   9.704     127.8   0.000970   0.000723  -1.435663  -0.876227     0.04 (  52->  73)    0.04 (  58->  75)    0.03 (  54->  72)
 237   9.720     127.6   0.004697   0.003233  17.736013  13.151194     0.07 (  52->  76)    0.04 (  51->  72)    0.02 (  67->  87)
 238   9.722     127.5   0.015398   0.013658  19.041597  16.311063     0.10 (  52->  76)    0.06 (  71-> 106)    0.03 (  49->  72)
 239   9.730     127.4   0.022879   0.019532  -15.255907  -13.353393     0.16 (  52->  76)    0.07 (  70->  84)    0.06 (  71-> 106)
 240   9.738     127.3   0.002874   0.002675  -5.563878  -5.470589     0.04 (  51->  72)    0.04 (  66->  77)    0.02 (  53->  72)
 241   9.743     127.3   0.005875   0.004926  16.056551  14.037935     0.12 (  52->  76)    0.08 (  66->  77)    0.02 (  69->  84)
 242   9.748     127.2   0.017916   0.015711   0.731002   2.225251     0.05 (  66->  77)    0.03 (  52->  76)    0.02 (  51->  72)
 243   9.757     127.1   0.025960   0.025278  19.446447  20.777887     0.04 (  51->  72)    0.04 (  59->  77)    0.03 (  70->  84)
 244   9.762     127.0   0.009011   0.008124  -27.804625  -26.223538     0.13 (  66->  77)    0.04 (  52->  73)    0.03 (  52->  75)
 245   9.773     126.9   0.024203   0.020662  -0.521707  -0.446131     0.12 (  66->  77)    0.07 (  71->  87)    0.05 (  52->  73)
 246   9.781     126.8   0.062621   0.053064  10.851149   9.616460     0.04 (  52->  73)    0.03 (  52->  75)    0.03 (  61->  94)
 247   9.801     126.5   0.017052   0.014295  13.661307  14.237957     0.04 (  69->  86)    0.03 (  69->  84)    0.03 (  71-> 107)
 248   9.802     126.5   0.003598   0.003433  -6.282757  -6.401207     0.07 (  68->  96)    0.05 (  70->  84)    0.05 (  70->  85)
 249   9.820     126.3   0.007978   0.006987  20.941336  19.851134     0.03 (  68->  96)    0.02 (  71-> 105)    0.02 (  52->  73)
 250   9.823     126.2   0.012436   0.010826   7.536574   7.710097     0.06 (  70->  84)    0.06 (  69->  83)    0.02 (  69-> 103)
 251   9.840     126.0   0.022990   0.022188  112.416059  110.033209     0.15 (  50->  78)    0.04 (  67->  77)    0.04 (  67-> 103)
 252   9.849     125.9   0.019269   0.018283  -10.044565  -8.850506     0.14 (  68->  78)    0.07 (  65->  78)    0.04 (  59->  90)
 253   9.854     125.8   0.027704   0.024799  -32.990770  -30.801459     0.07 (  71-> 106)    0.06 (  70-> 106)    0.04 (  70->  87)
 254   9.861     125.7   0.014957   0.013123  -19.919492  -18.924926     0.07 (  68->  78)    0.06 (  63->  77)    0.05 (  67->  77)
 255   9.869     125.6   0.029462   0.025347  -48.124428  -48.326930     0.09 (  50->  78)    0.09 (  68->  78)    0.08 (  70-> 106)
 256   9.872     125.6   0.005218   0.003728   6.050585   6.189704     0.06 (  69-> 106)    0.04 (  70-> 106)    0.04 (  51->  72)
 257   9.892     125.3   0.003891   0.003757  -5.236867  -3.954662     0.13 (  69-> 103)    0.04 (  70-> 103)    0.03 (  71->  87)
 258   9.898     125.3   0.001206   0.000622  -6.861063  -5.685934     0.05 (  70-> 106)    0.03 (  50->  78)    0.03 (  67->  77)
 259   9.909     125.1   0.009674   0.009395   7.040322   5.056528     0.06 (  69->  83)    0.03 (  71->  83)    0.02 (  62->  83)
 260   9.913     125.1   0.004965   0.004908  -27.285508  -26.045416     0.06 (  70-> 107)    0.04 (  69-> 109)    0.03 (  49->  72)
 261   9.916     125.0   0.000611   0.000490  -2.932391  -2.238331     0.06 (  45->  74)    0.05 (  59->  78)    0.03 (  69->  83)
 262   9.925     124.9   0.016037   0.013464   1.689031   1.667555     0.05 (  71->  89)    0.03 (  60->  89)    0.03 (  70->  87)
 263   9.939     124.7   0.011032   0.009576  -6.325528  -6.105949     0.04 (  71->  86)    0.04 (  69->  83)    0.04 (  70-> 106)
 264   9.946     124.7   0.033494   0.027329  30.496222  27.620591     0.03 (  69-> 106)    0.03 (  59->  78)    0.02 (  67-> 103)
 265   9.958     124.5   0.006580   0.005746  -24.818020  -25.173853     0.05 (  67-> 103)    0.04 (  67->  79)    0.03 (  59->  78)
 266   9.970     124.4   0.005785   0.005793  22.194671  22.988396     0.03 (  67->  79)    0.03 (  59->  75)    0.03 (  59->  80)
 267   9.979     124.2   0.007203   0.007223  15.546820  15.887762     0.04 (  67-> 103)    0.03 (  59->  78)    0.02 (  58->  87)
 268   9.993     124.1   0.000993   0.000888  -2.123131  -1.342641     0.07 (  60->  87)    0.06 (  61->  87)    0.04 (  70->  87)

sTD-DFT done

Total run time:       46.604 sec

           *** ORCA-CIS/TD-DFT FINISHED WITHOUT ERROR ***


-------------------------------------------------------------------------------
                          DFT DISPERSION CORRECTION                            
                                                                               
                              DFTD3 V3.1  Rev 1                                
                              USING zero damping                               
-------------------------------------------------------------------------------
The omegaB97X-D3 functional is recognized. Fit by Chai et al.
Active option DFTDOPT                   ...         3   

molecular C6(AA) [au] = 36822.228214 


            DFT-D V3
 parameters
 s6 scaling factor         :     1.0000 
 rs6 scaling factor        :     1.2810 
 s8 scaling factor         :     1.0000 
 rs8 scaling factor        :     1.0940 
 Damping factor alpha6     :    14.0000 
 Damping factor alpha8     :    16.0000 
 ad hoc parameters k1-k3   :    16.0000     1.3333    -4.0000 

 Edisp/kcal,au: -12.042610683456  -0.019191119651 
 E6   /kcal   :  -5.550360197 
 E8   /kcal   :  -6.492250487 
 % E8         :  53.910656562 

-------------------------   ----------------
Dispersion correction           -0.019191120
-------------------------   ----------------


-------------------------   --------------------
FINAL SINGLE POINT ENERGY     -2422.842442723024
-------------------------   --------------------


                            ***************************************
                            *     ORCA property calculations      *
                            ***************************************

                                    ---------------------
                                    Active property flags
                                    ---------------------
   (+) Dipole Moment
   (+) Quadrupole Moment


------------------------------------------------------------------------------
                       ORCA ELECTRIC PROPERTIES CALCULATION
------------------------------------------------------------------------------

Dipole Moment Calculation                       ... on
Quadrupole Moment Calculation                   ... on
Polarizability Calculation                      ... off
GBWName                                         ... total_job2.gbw
Electron density file                           ... total_job2.scfp.tmp

-------------
DIPOLE MOMENT
-------------
                                X             Y             Z
Electronic contribution:     21.96158      -2.64018      -2.35871
Nuclear contribution   :    -22.45122       2.87139       2.40991
                        -----------------------------------------
Total Dipole Moment    :     -0.48964       0.23121       0.05120
                        -----------------------------------------
Magnitude (a.u.)       :      0.54390
Magnitude (Debye)      :      1.38248


------------------------
QUADRUPOLE MOMENT (A.U.)
------------------------

                XX           YY           ZZ           XY           XZ           YZ
  NUC     23671.66896   2610.04183    356.56160  -2171.00181    274.30349   -656.29429
  EL     -23770.54792  -2749.55614   -509.63601   2157.42333   -272.90633    651.33046
  TOT       -98.87895   -139.51431   -153.07442    -13.57848      1.39716     -4.96383

--------------------------------------------------------------------------
[[44850,1],4]: A high-performance Open MPI point-to-point messaging module
was unable to find any relevant network interfaces:

Module: OpenFabrics (openib)
  Host: cx1-108-10-3

Another transport will be used instead, although this may result in
lower performance.
--------------------------------------------------------------------------

Timings for individual modules:

Sum of individual times         ...      191.444 sec (=   3.191 min)
GTO integral calculation        ...        5.554 sec (=   0.093 min)   2.9 %
SCF iterations                  ...      136.691 sec (=   2.278 min)  71.4 %
CIS module                      ...       49.199 sec (=   0.820 min)  25.7 %



                             ****ORCA TERMINATED NORMALLY****
TOTAL RUN TIME: 0 days 0 hours 11 minutes 36 seconds 846 msec
