
                                 *****************
                                 * O   R   C   A *
                                 *****************

           --- An Ab Initio, DFT and Semiempirical electronic structure package ---

                  #######################################################
                  #                        -***-                        #
                  #  Department of molecular theory and spectroscopy    #
                  #              Directorship: Frank Neese              #
                  # Max Planck Institute for Chemical Energy Conversion #
                  #                  D-45470 Muelheim/Ruhr              #
                  #                       Germany                       #
                  #                                                     #
                  #                  All rights reserved                #
                  #                        -***-                        #
                  #######################################################


                         Program Version 4.0.0 -  RELEASE  -


 With contributions from (in alphabetic order):
   Daniel Aravena         : Magnetic Properties
   Michael Atanasov       : Ab Initio Ligand Field Theory
   Ute Becker             : Parallelization
   Martin Brehm           : Molecular dynamics
   Dmytro Bykov           : SCF Hessian
   Vijay G. Chilkuri      : MRCI spin determinant printing
   Dipayan Datta          : RHF DLPNO-CCSD density
   Achintya Kumar Dutta   : EOM-CC, STEOM-CC
   Dmitry Ganyushin       : Spin-Orbit,Spin-Spin,Magnetic field MRCI
   Yang Guo               : DLPNO-NEVPT2, CIM, IAO-localization
   Andreas Hansen         : Spin unrestricted coupled pair/coupled cluster methods
   Lee Huntington         : MR-EOM, pCC
   Robert Izsak           : Overlap fitted RIJCOSX, COSX-SCS-MP3, EOM
   Christian Kollmar      : KDIIS, OOCD, Brueckner-CCSD(T), CCSD density
   Simone Kossmann        : Meta GGA functionals, TD-DFT gradient, OOMP2, MP2 Hessian
   Martin Krupicka        : AUTO-CI
   Dagmar Lenk            : GEPOL surface
   Dimitrios Liakos       : Extrapolation schemes; parallel MDCI
   Dimitrios Manganas     : ROCIS; embedding schemes
   Dimitrios Pantazis     : SARC Basis sets
   Taras Petrenko         : DFT Hessian,TD-DFT gradient, ASA, ECA, R-Raman, ABS, FL, XAS/XES, NRVS
   Peter Pinski           : DLPNO-MP2
   Christoph Reimann      : Effective Core Potentials
   Marius Retegan         : Local ZFS, SOC
   Christoph Riplinger    : Optimizer, TS searches, QM/MM, DLPNO-CCSD(T), (RO)-DLPNO pert. Triples
   Tobias Risthaus        : Range-separated hybrids, TD-DFT gradient, RPA, STAB
   Michael Roemelt        : Restricted open shell CIS
   Masaaki Saitow         : Open-shell DLPNO
   Barbara Sandhoefer     : DKH picture change effects
   Kantharuban Sivalingam : CASSCF convergence, NEVPT2, FIC-MRCI
   Georgi Stoychev        : AutoAux
   Boris Wezisla          : Elementary symmetry handling
   Frank Wennmohs         : Technical directorship


 We gratefully acknowledge several colleagues who have allowed us to
 interface, adapt or use parts of their codes:
   Stefan Grimme, W. Hujo, H. Kruse,             : VdW corrections, initial TS optimization,
                  C. Bannwarth                     DFT functionals, gCP, sTDA/sTD-DF
   Ed Valeev                                     : LibInt (2-el integral package), F12 methods
   Garnet Chan, S. Sharma, J. Yang, R. Olivares  : DMRG
   Ulf Ekstrom                                   : XCFun DFT Library
   Mihaly Kallay                                 : mrcc  (arbitrary order and MRCC methods)
   Jiri Pittner, Ondrej Demel                    : Mk-CCSD
   Frank Weinhold                                : gennbo (NPA and NBO analysis)
   Christopher J. Cramer and Donald G. Truhlar   : smd solvation model


 Your calculation uses the libint2 library for the computation of 2-el integrals
 For citations please refer to: http://libint.valeyev.net

 This ORCA versions uses:
   CBLAS   interface :  Fast vector & matrix operations
   LAPACKE interface :  Fast linear algebra routines
   SCALAPACK package :  Parallel linear algebra routines


Your calculation utilizes the atom-pairwise dispersion correction
with the zero-damping scheme (D30)
Cite in your paper:
S.Grimme, J.Antony, S.Ehrlich and H.Krieg, J.Chem.Phys., 132, (2010), 154104 
   

XCFun DFT library Copyright 2009-2010 Ulf Ekstrom and contributors.
See http://admol.org/xcfun for more information. This is free soft-
ware; see the source code for copying conditions. There is ABSOLUTELY
NO WARRANTY; not even for MERCHANTABILITY or FITNESS FOR A PARTICULAR
PURPOSE. For details see the documentation. Scientific users of this 
library should cite U. Ekstrom, L. Visscher, R. Bast, A. J. Thorvald-
sen and K. Ruud; J.Chem.Theor.Comp. 2010, DOI: 10.1021/ct100117s
XCFun Version 0.99 
Your calculation utilizes the basis: def2-TZVP
   F. Weigend and R. Ahlrichs, Phys. Chem. Chem. Phys. 7, 3297 (2005).

Your calculation utilizes the auxiliary basis: def2/J
   F. Weigend, Phys. Chem. Chem. Phys. 8, 1057 (2006).

================================================================================
                                        WARNINGS
                       Please study these warnings very carefully!
================================================================================

Warning: TCutStore was < 0. Adjusted to Thresh (uncritical)
INFO   : Checking CIS options ...

WARNING: CIS/ROCIS methods need fully converged wavefunctions
  ===> : Setting SCFConvForced true
         You can overwrite this default with %scf ConvForced false 


INFO   : the flag for use of LIBINT has been found!

Your calculation utilizes the atom-pairwise dispersion correction
with the zero-damping scheme (D30)
Cite in your paper:
S.Grimme, J.Antony, S.Ehrlich and H.Krieg, J.Chem.Phys., 132, (2010), 154104 
   

XCFun DFT library Copyright 2009-2010 Ulf Ekstrom and contributors.
See http://admol.org/xcfun for more information. This is free soft-
ware; see the source code for copying conditions. There is ABSOLUTELY
NO WARRANTY; not even for MERCHANTABILITY or FITNESS FOR A PARTICULAR
PURPOSE. For details see the documentation. Scientific users of this 
library should cite U. Ekstrom, L. Visscher, R. Bast, A. J. Thorvald-
sen and K. Ruud; J.Chem.Theor.Comp. 2010, DOI: 10.1021/ct100117s
XCFun Version 0.99 
Your calculation utilizes the basis: def2-TZVP
   F. Weigend and R. Ahlrichs, Phys. Chem. Chem. Phys. 7, 3297 (2005).

Your calculation utilizes the auxiliary basis: def2/J
   F. Weigend, Phys. Chem. Chem. Phys. 8, 1057 (2006).

================================================================================
                                        WARNINGS
                       Please study these warnings very carefully!
================================================================================

INFO   : Checking CIS options ...

INFO   : the flag for use of LIBINT has been found!

================================================================================
                                       INPUT FILE
================================================================================
NAME = total.inp
|  1> # 
|  2> !wB97X-D3 def2-TZVP def2/J RIJCOSX Grid5 FinalGrid6 TightSCF
|  3> %pal 
|  4>  nprocs 24
|  5> end
|  6> %tddft
|  7>   Mode sTDDFT
|  8>   nroots 2
|  9>   Ethresh 10.0
| 10>   maxcore 5000
| 11>   triplets true
| 12> end
| 13> * xyz 0 1 
| 14> C -4.34667710 -2.80511181 0.56354553
| 15> C -3.63794076 -1.65362566 0.23135755
| 16> C -4.34553870 -0.50914506 -0.18359631
| 17> C -5.76636692 -0.57434046 -0.23595961
| 18> C -6.48266473 -1.73579922 0.09156306
| 19> C -5.75020992 -2.85054239 0.49106874
| 20> C -3.97832871 0.84329191 -0.57344485
| 21> C -5.20555166 1.52760775 -0.82175600
| 22> N -6.26117795 0.65613352 -0.63103116
| 23> C -5.26999672 2.88256481 -1.17814030
| 24> C -4.06626936 3.57782442 -1.27282191
| 25> C -2.84543090 2.93535035 -1.03327302
| 26> C -2.76166343 1.56928163 -0.70054549
| 27> H -1.92530745 3.50675653 -1.13274307
| 28> H -7.24079250 0.89270598 -0.73001349
| 29> H -4.07020039 4.63083920 -1.53891321
| 30> H -2.55355158 -1.64586880 0.29037565
| 31> H -7.56783785 -1.76044079 0.03970080
| 32> H -6.27005331 -3.76827931 0.75297291
| 33> H -3.80506734 -3.69115131 0.88323688
| 34> S 3.25495184 -1.12604288 -0.02679644
| 35> C 4.67172763 -0.15981219 0.45494680
| 36> N 4.37885448 1.11886188 0.65867522
| 37> N 3.06643306 1.42324715 0.45861497
| 38> C 2.33064793 0.37833670 0.09670795
| 39> C 0.91332945 0.44462470 -0.17260876
| 40> N 0.18447554 -0.60219335 -0.53939270
| 41> N -1.13274161 -0.30011722 -0.73880558
| 42> C -1.43414655 0.97254621 -0.52419074
| 43> S -0.01833250 1.94180716 -0.04719071
| 44> N 9.47431032 0.20754735 1.49247391
| 45> C 8.44391358 -0.53949900 1.13247993
| 46> C 7.13166168 0.10873239 1.00287016
| 47> N 7.05693562 1.40265186 1.25392224
| 48> S 8.79855750 1.94515108 1.71432092
| 49> C 6.00610007 -0.72460611 0.60609199
| 50> C 6.26114217 -2.06816170 0.38095133
| 51> N 7.49391090 -2.67292245 0.50364631
| 52> C 8.54230944 -1.95767925 0.86068905
| 53> H 5.43939734 -2.72670440 0.08087495
| 54> H -6.22239726 3.37162448 -1.36213403
| 55> H 9.50968663 -2.46524369 0.95017052
| 56> *
| 57> $new_job
| 58> # 
| 59> !wB97X-D3 def2-TZVP def2/J RIJCOSX Grid5 FinalGrid6 TightSCF
| 60> %pal 
| 61>  nprocs 24
| 62> end
| 63> %elprop
| 64>    dipole     true
| 65>    quadrupole true
| 66> end
| 67> %tddft
| 68>   Mode sTDDFT
| 69>   nroots 2
| 70>   Ethresh 10.0
| 71>   maxcore 5000
| 72> end
| 73> * xyz 0 1 
| 74> C -4.34667710 -2.80511181 0.56354553
| 75> C -3.63794076 -1.65362566 0.23135755
| 76> C -4.34553870 -0.50914506 -0.18359631
| 77> C -5.76636692 -0.57434046 -0.23595961
| 78> C -6.48266473 -1.73579922 0.09156306
| 79> C -5.75020992 -2.85054239 0.49106874
| 80> C -3.97832871 0.84329191 -0.57344485
| 81> C -5.20555166 1.52760775 -0.82175600
| 82> N -6.26117795 0.65613352 -0.63103116
| 83> C -5.26999672 2.88256481 -1.17814030
| 84> C -4.06626936 3.57782442 -1.27282191
| 85> C -2.84543090 2.93535035 -1.03327302
| 86> C -2.76166343 1.56928163 -0.70054549
| 87> H -1.92530745 3.50675653 -1.13274307
| 88> H -7.24079250 0.89270598 -0.73001349
| 89> H -4.07020039 4.63083920 -1.53891321
| 90> H -2.55355158 -1.64586880 0.29037565
| 91> H -7.56783785 -1.76044079 0.03970080
| 92> H -6.27005331 -3.76827931 0.75297291
| 93> H -3.80506734 -3.69115131 0.88323688
| 94> S 3.25495184 -1.12604288 -0.02679644
| 95> C 4.67172763 -0.15981219 0.45494680
| 96> N 4.37885448 1.11886188 0.65867522
| 97> N 3.06643306 1.42324715 0.45861497
| 98> C 2.33064793 0.37833670 0.09670795
| 99> C 0.91332945 0.44462470 -0.17260876
|100> N 0.18447554 -0.60219335 -0.53939270
|101> N -1.13274161 -0.30011722 -0.73880558
|102> C -1.43414655 0.97254621 -0.52419074
|103> S -0.01833250 1.94180716 -0.04719071
|104> N 9.47431032 0.20754735 1.49247391
|105> C 8.44391358 -0.53949900 1.13247993
|106> C 7.13166168 0.10873239 1.00287016
|107> N 7.05693562 1.40265186 1.25392224
|108> S 8.79855750 1.94515108 1.71432092
|109> C 6.00610007 -0.72460611 0.60609199
|110> C 6.26114217 -2.06816170 0.38095133
|111> N 7.49391090 -2.67292245 0.50364631
|112> C 8.54230944 -1.95767925 0.86068905
|113> H 5.43939734 -2.72670440 0.08087495
|114> H -6.22239726 3.37162448 -1.36213403
|115> H 9.50968663 -2.46524369 0.95017052
|116> *
|117> 
|118>                          ****END OF INPUT****
================================================================================


                 $$$$$$$$$$$$$$$$$$$$$$$$$$$$$$$$$$$$$$$$$$$$$$ 
                 $ THERE ARE  2 JOBS TO BE PROCESSED THIS RUN $
                 $$$$$$$$$$$$$$$$$$$$$$$$$$$$$$$$$$$$$$$$$$$$$$ 




                 $$$$$$$$$$$$$$$$  JOB NUMBER  1 $$$$$$$$$$$$$$


                       ****************************
                       * Single Point Calculation *
                       ****************************

---------------------------------
CARTESIAN COORDINATES (ANGSTROEM)
---------------------------------
  C     -4.346677   -2.805112    0.563546
  C     -3.637941   -1.653626    0.231358
  C     -4.345539   -0.509145   -0.183596
  C     -5.766367   -0.574340   -0.235960
  C     -6.482665   -1.735799    0.091563
  C     -5.750210   -2.850542    0.491069
  C     -3.978329    0.843292   -0.573445
  C     -5.205552    1.527608   -0.821756
  N     -6.261178    0.656134   -0.631031
  C     -5.269997    2.882565   -1.178140
  C     -4.066269    3.577824   -1.272822
  C     -2.845431    2.935350   -1.033273
  C     -2.761663    1.569282   -0.700545
  H     -1.925307    3.506757   -1.132743
  H     -7.240793    0.892706   -0.730013
  H     -4.070200    4.630839   -1.538913
  H     -2.553552   -1.645869    0.290376
  H     -7.567838   -1.760441    0.039701
  H     -6.270053   -3.768279    0.752973
  H     -3.805067   -3.691151    0.883237
  S      3.254952   -1.126043   -0.026796
  C      4.671728   -0.159812    0.454947
  N      4.378854    1.118862    0.658675
  N      3.066433    1.423247    0.458615
  C      2.330648    0.378337    0.096708
  C      0.913329    0.444625   -0.172609
  N      0.184476   -0.602193   -0.539393
  N     -1.132742   -0.300117   -0.738806
  C     -1.434147    0.972546   -0.524191
  S     -0.018333    1.941807   -0.047191
  N      9.474310    0.207547    1.492474
  C      8.443914   -0.539499    1.132480
  C      7.131662    0.108732    1.002870
  N      7.056936    1.402652    1.253922
  S      8.798557    1.945151    1.714321
  C      6.006100   -0.724606    0.606092
  C      6.261142   -2.068162    0.380951
  N      7.493911   -2.672922    0.503646
  C      8.542309   -1.957679    0.860689
  H      5.439397   -2.726704    0.080875
  H     -6.222397    3.371624   -1.362134
  H      9.509687   -2.465244    0.950171

----------------------------
CARTESIAN COORDINATES (A.U.)
----------------------------
  NO LB      ZA    FRAG     MASS         X           Y           Z
   0 C     6.0000    0    12.011   -8.214029   -5.300893    1.064947
   1 C     6.0000    0    12.011   -6.874712   -3.124900    0.437202
   2 C     6.0000    0    12.011   -8.211878   -0.962145   -0.346947
   3 C     6.0000    0    12.011  -10.896854   -1.085346   -0.445899
   4 C     6.0000    0    12.011  -12.250461   -3.280185    0.173029
   5 C     6.0000    0    12.011  -10.866322   -5.386744    0.927985
   6 C     6.0000    0    12.011   -7.517952    1.593591   -1.083654
   7 C     6.0000    0    12.011   -9.837067    2.886760   -1.552894
   8 N     7.0000    0    14.007  -11.831912    1.239913   -1.192476
   9 C     6.0000    0    12.011   -9.958851    5.447258   -2.226363
  10 C     6.0000    0    12.011   -7.684135    6.761108   -2.405285
  11 C     6.0000    0    12.011   -5.377085    5.547008   -1.952603
  12 C     6.0000    0    12.011   -5.218788    2.965513   -1.323839
  13 H     1.0000    0     1.008   -3.638304    6.626809   -2.140574
  14 H     1.0000    0     1.008  -13.683115    1.686970   -1.379526
  15 H     1.0000    0     1.008   -7.691564    8.751018   -2.908125
  16 H     1.0000    0     1.008   -4.825513   -3.110241    0.548730
  17 H     1.0000    0     1.008  -14.301141   -3.326751    0.075024
  18 H     1.0000    0     1.008  -11.848684   -7.121016    1.422913
  19 H     1.0000    0     1.008   -7.190535   -6.975265    1.669076
  20 S    16.0000    0    32.060    6.150968   -2.127913   -0.050638
  21 C     6.0000    0    12.011    8.828286   -0.302001    0.859725
  22 N     7.0000    0    14.007    8.274836    2.114343    1.244716
  23 N     7.0000    0    14.007    5.794719    2.689547    0.866657
  24 C     6.0000    0    12.011    4.404286    0.714953    0.182752
  25 C     6.0000    0    12.011    1.725943    0.840219   -0.326183
  26 N     7.0000    0    14.007    0.348608   -1.137981   -1.019304
  27 N     7.0000    0    14.007   -2.140571   -0.567139   -1.396140
  28 C     6.0000    0    12.011   -2.710144    1.837846   -0.990577
  29 S    16.0000    0    32.060   -0.034643    3.669484   -0.089178
  30 N     7.0000    0    14.007   17.903852    0.392208    2.820367
  31 C     6.0000    0    12.011   15.956684   -1.019505    2.140077
  32 C     6.0000    0    12.011   13.476887    0.205474    1.895150
  33 N     7.0000    0    14.007   13.335676    2.650628    2.369570
  34 S    16.0000    0    32.060   16.626864    3.675803    3.239597
  35 C     6.0000    0    12.011   11.349884   -1.369307    1.145348
  36 C     6.0000    0    12.011   11.831844   -3.908259    0.719894
  37 N     7.0000    0    14.007   14.161439   -5.051091    0.951754
  38 C     6.0000    0    12.011   16.142625   -3.699478    1.626467
  39 H     1.0000    0     1.008   10.278971   -5.152725    0.152832
  40 H     1.0000    0     1.008  -11.758627    6.371447   -2.574060
  41 H     1.0000    0     1.008   17.970703   -4.658635    1.795562

--------------------------------
INTERNAL COORDINATES (ANGSTROEM)
--------------------------------
 C      0   0   0     0.000000000000     0.00000000     0.00000000
 C      1   0   0     1.392327693948     0.00000000     0.00000000
 C      2   1   0     1.408089980931   119.12422922     0.00000000
 C      3   2   1     1.423286754704   118.37668677     0.50973112
 C      4   3   2     1.403331786555   122.60672162   359.12770692
 C      5   4   3     1.392389016082   117.45605248     0.54774173
 C      3   2   1     1.454617069444   135.05744883   178.50461828
 C      7   3   2     1.426892695719   105.98682470   182.66329184
 N      8   7   3     1.382096292697   109.29869559   358.70029077
 C      8   7   3     1.402523286612   123.16545645   177.67115159
 C     10   8   7     1.393309043171   117.36424011   359.21887798
 C     11  10   8     1.400215392980   120.84200577     0.65842498
 C     12  11  10     1.408498614132   122.49902616     0.60269330
 H     12  11  10     1.087670205820   118.74346930   179.00227015
 H      9   8   7     1.012624657538   125.31625688   179.10025748
 H     11  10   8     1.086121613739   119.82218837   180.44532115
 H      2   1   3     1.086021730310   120.07982815   180.20670246
 H      5   4   3     1.086691125093   121.15416093   180.23379151
 H      6   5   4     1.086771364511   119.57711172   179.98029228
 H      1   2   3     1.086558644047   119.39737823   179.93178171
 S     17   2   1     5.840336386025   172.19622867   145.00994868
 C     21  17   2     1.781272560479   145.55106441    86.83172202
 N     22  21  17     1.327511705559   112.86206103   332.51393470
 N     23  22  21     1.362029544429   113.90984276     0.00000000
 C     24  23  22     1.328229760687   113.45289511     0.00000000
 C     25  24  23     1.444201254320   123.94177017   179.97006415
 N     26  25  24     1.327247720122   123.65958134   179.70743862
 N     27  26  25     1.366044108102   113.29402531   179.99582028
 C     28  27  26     1.325359073408   114.07844387   359.72705636
 S     26  25  24     1.767845862872   122.87694656   359.87612083
 N     22  21  17     4.927090016420   150.77012646   152.48832562
 C     31  22  21     1.322645589902    30.81992801     0.04502807
 C     32  31  22     1.469356211582   118.07185521     0.00000000
 N     33  32  31     1.320166173540   117.78616534     0.00000000
 S     31  22  21     1.877531542237    75.11162798   180.04332340
 C     33  32  31     1.455601219317   117.52005867   180.00084901
 C     36  33  32     1.385956858267   117.19209135     0.00000000
 N     37  36  33     1.378589266070   125.12461342     0.00000000
 C     38  37  36     1.318405040952   119.81524783     0.00000000
 H     37  36  33     1.094983510008   119.30354272   180.00515641
 H     10   8   7     1.086324004196   121.21502064   179.86742731
 H     39  38  37     1.096105479394   118.21013289   180.00103095

---------------------------
INTERNAL COORDINATES (A.U.)
---------------------------
 C      0   0   0     0.000000000000     0.00000000     0.00000000
 C      1   0   0     2.631118030236     0.00000000     0.00000000
 C      2   1   0     2.660904435877   119.12422922     0.00000000
 C      3   2   1     2.689622176428   118.37668677     0.50973112
 C      4   3   2     2.651912751615   122.60672162   359.12770692
 C      5   4   3     2.631233912275   117.45605248     0.54774173
 C      3   2   1     2.748827890977   135.05744883   178.50461828
 C      7   3   2     2.696436417401   105.98682470   182.66329184
 N      8   7   3     2.611783483905   109.29869559   358.70029077
 C      8   7   3     2.650384908144   123.16545645   177.67115159
 C     10   8   7     2.632972511509   117.36424011   359.21887798
 C     11  10   8     2.646023621233   120.84200577     0.65842498
 C     12  11  10     2.661676640718   122.49902616     0.60269330
 H     12  11  10     2.055398813026   118.74346930   179.00227015
 H      9   8   7     1.913583279203   125.31625688   179.10025748
 H     11  10   8     2.052472398099   119.82218837   180.44532115
 H      2   1   3     2.052283645773   120.07982815   180.20670246
 H      5   4   3     2.053548618588   121.15416093   180.23379151
 H      6   5   4     2.053700249114   119.57711172   179.98029228
 H      1   2   3     2.053298265693   119.39737823   179.93178171
 S     17   2   1    11.036636299563   172.19622867   145.00994868
 C     21  17   2     3.366117309173   145.55106441    86.83172202
 N     22  21  17     2.508633563082   112.86206103   332.51393470
 N     23  22  21     2.573862825281   113.90984276     0.00000000
 C     24  23  22     2.509990490621   113.45289511     0.00000000
 C     25  24  23     2.729144852930   123.94177017   179.97006415
 N     26  25  24     2.508134702903   123.65958134   179.70743862
 N     27  26  25     2.581449251169   113.29402531   179.99582028
 C     28  27  26     2.504565677848   114.07844387   359.72705636
 S     26  25  24     3.340744527815   122.87694656   359.87612083
 N     22  21  17     9.310850768211   150.77012646   152.48832562
 C     31  22  21     2.499437937153    30.81992801     0.04502807
 C     32  31  22     2.776680833066   118.07185521     0.00000000
 N     33  32  31     2.494752519258   117.78616534     0.00000000
 S     31  22  21     3.548020422626    75.11162798   180.04332340
 C     33  32  31     2.750687664711   117.52005867   180.00084901
 C     36  33  32     2.619078895555   117.19209135     0.00000000
 N     37  36  33     2.605156164036   125.12461342     0.00000000
 C     38  37  36     2.491424460980   119.81524783     0.00000000
 H     37  36  33     2.069218955074   119.30354272   180.00515641
 H     10   8   7     2.052854860635   121.21502064   179.86742731
 H     39  38  37     2.071339169946   118.21013289   180.00103095

---------------------
BASIS SET INFORMATION
---------------------
There are 4 groups of distinct atoms

 Group   1 Type C   : 11s6p2d1f contracted to 5s3p2d1f pattern {62111/411/11/1}
 Group   2 Type N   : 11s6p2d1f contracted to 5s3p2d1f pattern {62111/411/11/1}
 Group   3 Type H   : 5s1p contracted to 3s1p pattern {311/1}
 Group   4 Type S   : 14s9p3d1f contracted to 5s5p2d1f pattern {73211/51111/21/1}

Atom   0C    basis set group =>   1
Atom   1C    basis set group =>   1
Atom   2C    basis set group =>   1
Atom   3C    basis set group =>   1
Atom   4C    basis set group =>   1
Atom   5C    basis set group =>   1
Atom   6C    basis set group =>   1
Atom   7C    basis set group =>   1
Atom   8N    basis set group =>   2
Atom   9C    basis set group =>   1
Atom  10C    basis set group =>   1
Atom  11C    basis set group =>   1
Atom  12C    basis set group =>   1
Atom  13H    basis set group =>   3
Atom  14H    basis set group =>   3
Atom  15H    basis set group =>   3
Atom  16H    basis set group =>   3
Atom  17H    basis set group =>   3
Atom  18H    basis set group =>   3
Atom  19H    basis set group =>   3
Atom  20S    basis set group =>   4
Atom  21C    basis set group =>   1
Atom  22N    basis set group =>   2
Atom  23N    basis set group =>   2
Atom  24C    basis set group =>   1
Atom  25C    basis set group =>   1
Atom  26N    basis set group =>   2
Atom  27N    basis set group =>   2
Atom  28C    basis set group =>   1
Atom  29S    basis set group =>   4
Atom  30N    basis set group =>   2
Atom  31C    basis set group =>   1
Atom  32C    basis set group =>   1
Atom  33N    basis set group =>   2
Atom  34S    basis set group =>   4
Atom  35C    basis set group =>   1
Atom  36C    basis set group =>   1
Atom  37N    basis set group =>   2
Atom  38C    basis set group =>   1
Atom  39H    basis set group =>   3
Atom  40H    basis set group =>   3
Atom  41H    basis set group =>   3
-------------------------------
AUXILIARY BASIS SET INFORMATION
-------------------------------
There are 4 groups of distinct atoms

 Group   1 Type C   : 12s5p4d2f1g contracted to 6s4p3d1f1g pattern {711111/2111/211/2/1}
 Group   2 Type N   : 12s5p4d2f1g contracted to 6s4p3d1f1g pattern {711111/2111/211/2/1}
 Group   3 Type H   : 5s2p1d contracted to 3s1p1d pattern {311/2/1}
 Group   4 Type S   : 14s5p5d2f1g contracted to 8s4p3d1f1g pattern {71111111/2111/311/2/1}

Atom   0C    basis set group =>   1
Atom   1C    basis set group =>   1
Atom   2C    basis set group =>   1
Atom   3C    basis set group =>   1
Atom   4C    basis set group =>   1
Atom   5C    basis set group =>   1
Atom   6C    basis set group =>   1
Atom   7C    basis set group =>   1
Atom   8N    basis set group =>   2
Atom   9C    basis set group =>   1
Atom  10C    basis set group =>   1
Atom  11C    basis set group =>   1
Atom  12C    basis set group =>   1
Atom  13H    basis set group =>   3
Atom  14H    basis set group =>   3
Atom  15H    basis set group =>   3
Atom  16H    basis set group =>   3
Atom  17H    basis set group =>   3
Atom  18H    basis set group =>   3
Atom  19H    basis set group =>   3
Atom  20S    basis set group =>   4
Atom  21C    basis set group =>   1
Atom  22N    basis set group =>   2
Atom  23N    basis set group =>   2
Atom  24C    basis set group =>   1
Atom  25C    basis set group =>   1
Atom  26N    basis set group =>   2
Atom  27N    basis set group =>   2
Atom  28C    basis set group =>   1
Atom  29S    basis set group =>   4
Atom  30N    basis set group =>   2
Atom  31C    basis set group =>   1
Atom  32C    basis set group =>   1
Atom  33N    basis set group =>   2
Atom  34S    basis set group =>   4
Atom  35C    basis set group =>   1
Atom  36C    basis set group =>   1
Atom  37N    basis set group =>   2
Atom  38C    basis set group =>   1
Atom  39H    basis set group =>   3
Atom  40H    basis set group =>   3
Atom  41H    basis set group =>   3
-------------------------
ECP PARAMETER INFORMATION
-------------------------



--------------------------------------------------------------------------
[[21773,1],3]: A high-performance Open MPI point-to-point messaging module
was unable to find any relevant network interfaces:

Module: OpenFabrics (openib)
  Host: cx1-103-2-3

Another transport will be used instead, although this may result in
lower performance.
--------------------------------------------------------------------------


           ************************************************************
           *        Program running with 24 parallel MPI-processes    *
           *              working on a common directory               *
           ************************************************************
------------------------------------------------------------------------------
                           ORCA GTO INTEGRAL CALCULATION
                           -- RI-GTO INTEGRALS CHOSEN --
------------------------------------------------------------------------------

                         BASIS SET STATISTICS AND STARTUP INFO

Gaussian basis set:
 # of primitive gaussian shells          ...  721
 # of primitive gaussian functions       ... 1603
 # of contracted shells                  ...  398
 # of contracted basis functions         ... 1070
 Highest angular momentum                ...    3
 Maximum contraction depth               ...    7
Auxiliary gaussian basis set:
 # of primitive gaussian shells          ...  857
 # of primitive gaussian functions       ... 2421
 # of contracted shells                  ...  536
 # of contracted aux-basis functions     ... 1684
 Highest angular momentum                ...    4
 Maximum contraction depth               ...    7
Ratio of auxiliary to basis functions    ...  1.57
Integral package used                  ... LIBINT
 One Electron integrals                  
   ECP integrals                         ... done
 Ordering auxiliary basis shells         ... done
 Integral threshhold             Thresh  ...  2.500e-11
 Primitive cut-off               TCut    ...  2.500e-12
 Pre-screening matrix                    ... done
 Shell pair data                         ... 
 Ordering of the shell pairs             ... done (   0.009 sec) 39836 of 79401 pairs
 Determination of significant pairs      ... done (   0.000 sec)
 Creation of shell pair data             ... done (   0.007 sec)
 Storage of shell pair data              ... done (   0.101 sec)
 Shell pair data done in (   0.117 sec)
 Computing two index integrals           ... done
 Cholesky decomposition of the V-matrix  ... done


Timings:
 Total evaluation time                   ...   4.194 sec (  0.070 min)
 One electron matrix time                ...   1.173 sec (  0.020 min) = 28.0%
 Schwartz matrix evaluation time         ...   1.700 sec (  0.028 min) = 40.5%
 Two index repulsion integral time       ...   0.692 sec (  0.012 min) = 16.5%
 Cholesky decomposition of V             ...   0.475 sec (  0.008 min) = 11.3%
 Three index repulsion integral time     ...   0.000 sec (  0.000 min) =  0.0%

--------------------------------------------------------------------------
[[21854,1],2]: A high-performance Open MPI point-to-point messaging module
was unable to find any relevant network interfaces:

Module: OpenFabrics (openib)
  Host: cx1-103-2-3

Another transport will be used instead, although this may result in
lower performance.
--------------------------------------------------------------------------


           ************************************************************
           *        Program running with 24 parallel MPI-processes    *
           *              working on a common directory               *
           ************************************************************
-------------------------------------------------------------------------------
                                 ORCA SCF
-------------------------------------------------------------------------------

------------
SCF SETTINGS
------------
Hamiltonian:
 Density Functional     Method          .... DFT(GTOs)
 Exchange Functional    Exchange        .... WB97X-D3
 Correlation Functional Correlation     .... WB97X-D3
 Gradients option       PostSCFGGA      .... off
 Hybrid DFT is turned on
   Fraction HF Exchange ScalHFX         ....  0.195728
   Scaling of DF-GGA-X  ScalDFX         ....  0.000000
   Scaling of DF-GGA-C  ScalDFC         ....  1.000000
   Scaling of DF-LDA-C  ScalLDAC        ....  1.000000
   Perturbative correction              ....  0.000000
 Long-range corrected/Screened/Range-Separated Hybrid DFT is turned on
   Amount of maximum screened exact exchange              ....  0.804272
   Range separation parameter mu (erf(mu*r12)/r12)        ....  0.250000
 RI-approximation to the Coulomb term is turned on
   Number of auxiliary basis functions  .... 1684
   RIJ-COSX (HFX calculated with COS-X)).... on


General Settings:
 Integral files         IntName         .... total
 Hartree-Fock type      HFTyp           .... RHF
 Total Charge           Charge          ....    0
 Multiplicity           Mult            ....    1
 Number of Electrons    NEL             ....  240
 Basis Dimension        Dim             .... 1070
 Nuclear Repulsion      ENuc            ....   3169.7737931947 Eh

Convergence Acceleration:
 DIIS                   CNVDIIS         .... on
   Start iteration      DIISMaxIt       ....    12
   Startup error        DIISStart       ....  0.200000
   # of expansion vecs  DIISMaxEq       ....     5
   Bias factor          DIISBfac        ....   1.050
   Max. coefficient     DIISMaxC        ....  10.000
 Newton-Raphson         CNVNR           .... off
 SOSCF                  CNVSOSCF        .... on
   Start iteration      SOSCFMaxIt      ....   150
   Startup grad/error   SOSCFStart      ....  0.003300
 Level Shifting         CNVShift        .... on
   Level shift para.    LevelShift      ....    0.2500
   Turn off err/grad.   ShiftErr        ....    0.0010
 Zerner damping         CNVZerner       .... off
 Static damping         CNVDamp         .... on
   Fraction old density DampFac         ....    0.7000
   Max. Damping (<1)    DampMax         ....    0.9800
   Min. Damping (>=0)   DampMin         ....    0.0000
   Turn off err/grad.   DampErr         ....    0.1000
 Fernandez-Rico         CNVRico         .... off

SCF Procedure:
 Maximum # iterations   MaxIter         ....   125
 SCF integral mode      SCFMode         .... Direct
   Integral package                     .... LIBINT
 Reset frequeny         DirectResetFreq ....    20
 Integral Threshold     Thresh          ....  2.500e-11 Eh
 Primitive CutOff       TCut            ....  2.500e-12 Eh

Convergence Tolerance:
 Convergence Check Mode ConvCheckMode   .... Total+1el-Energy
 Convergence forced     ConvForced      .... 1
 Energy Change          TolE            ....  1.000e-08 Eh
 1-El. energy change                    ....  1.000e-05 Eh
 Orbital Gradient       TolG            ....  1.000e-05
 Orbital Rotation angle TolX            ....  1.000e-05
 DIIS Error             TolErr          ....  5.000e-07


Diagonalization of the overlap matrix:
Smallest eigenvalue                        ... 6.239e-06
Time for diagonalization                   ...    0.333 sec
Threshold for overlap eigenvalues          ... 1.000e-08
Number of eigenvalues below threshold      ... 0
Time for construction of square roots      ...    0.387 sec
Total time needed                          ...    0.726 sec

-------------------
DFT GRID GENERATION
-------------------

General Integration Accuracy     IntAcc      ...  5.010
Radial Grid Type                 RadialGrid  ... Gauss-Chebyshev
Angular Grid (max. acc.)         AngularGrid ... Lebedev-434
Angular grid pruning method      GridPruning ... 3 (G Style)
Weight generation scheme         WeightScheme... Becke
Basis function cutoff            BFCut       ...    1.0000e-11
Integration weight cutoff        WCut        ...    1.0000e-14
Grids for H and He will be reduced by one unit

# of grid points (after initial pruning)     ... 411518 (   0.0 sec)
# of grid points (after weights+screening)   ... 364570 (   0.8 sec)
nearest neighbour list constructed           ...    0.0 sec
Grid point re-assignment to atoms done       ...    0.1 sec
Grid point division into batches done        ...    3.3 sec
Reduced shell lists constructed in    3.8 sec

Total number of grid points                  ...   364570
Total number of batches                      ...     5719
Average number of points per batch           ...       63
Average number of grid points per atom       ...     8680
Average number of shells per batch           ...   128.45 (32.27%)
Average number of basis functions per batch  ...   333.95 (31.21%)
Average number of large shells per batch     ...    88.27 (68.71%)
Average number of large basis fcns per batch ...   228.21 (68.34%)
Maximum spatial batch extension              ...   9.83, 20.63, 22.48 au
Average spatial batch extension              ...   0.05,  0.06,  0.06 au

Time for grid setup =    5.798 sec

------------------------------
INITIAL GUESS: MODEL POTENTIAL
------------------------------
Loading Hartree-Fock densities                     ... done
Calculating cut-offs                               ... done
Setting up the integral package                    ... done
Initializing the effective Hamiltonian             ... done
Starting the Coulomb interaction                   ... done (   0.3 sec)
Reading the grid                                   ... done
Mapping shells                                     ... done
Starting the XC term evaluation                    ... done (   1.6 sec)
  promolecular density results
     # of electrons  =    239.995219746
     EX              =   -237.215483610
     EC              =     -8.396748373
     EX+EC           =   -245.612231983
Transforming the Hamiltonian                       ... done (   0.2 sec)
Diagonalizing the Hamiltonian                      ... done (   0.3 sec)
Back transforming the eigenvectors                 ... done (   0.1 sec)
Now organizing SCF variables                       ... done
                      ------------------
                      INITIAL GUESS DONE (   8.5 sec)
                      ------------------
--------------------
COSX GRID GENERATION
--------------------

General Integration Accuracy     IntAcc      ...  3.340
Radial Grid Type                 RadialGrid  ... Gauss-Chebyshev
Angular Grid (max. acc.)         AngularGrid ... Lebedev-50
Angular grid pruning method      GridPruning ... 3 (G Style)
Weight generation scheme         WeightScheme... Becke
Basis function cutoff            BFCut       ...    1.0000e-11
Integration weight cutoff        WCut        ...    1.0000e-14
Grids for H and He will be reduced by one unit

# of grid points (after initial pruning)     ...  22026 (   0.0 sec)
# of grid points (after weights+screening)   ...  20311 (   0.0 sec)
nearest neighbour list constructed           ...    0.0 sec
Grid point re-assignment to atoms done       ...    0.0 sec
Grid point division into batches done        ...    0.0 sec
Reduced shell lists constructed in    0.1 sec

Total number of grid points                  ...    20311
Total number of batches                      ...      339
Average number of points per batch           ...       59
Average number of grid points per atom       ...      484
Average number of shells per batch           ...   144.06 (36.20%)
Average number of basis functions per batch  ...   382.44 (35.74%)
Average number of large shells per batch     ...   101.75 (70.63%)
Average number of large basis fcns per batch ...   269.38 (70.44%)
Maximum spatial batch extension              ...   3.83,  7.14, 15.63 au
Average spatial batch extension              ...   0.10,  0.16,  0.26 au

Overlap Fitting                  UseSFitting ... on
Constructing numerical overlap ... done (      0.1 sec)
Inverting numerical overlap    ... done (      0.1 sec)
Obtaining analytic overlap     ... done (      0.0 sec)
Final contraction and storage  ... done (      0.4 sec)


General Integration Accuracy     IntAcc      ...  3.670
Radial Grid Type                 RadialGrid  ... Gauss-Chebyshev
Angular Grid (max. acc.)         AngularGrid ... Lebedev-50
Angular grid pruning method      GridPruning ... 3 (G Style)
Weight generation scheme         WeightScheme... Becke
Basis function cutoff            BFCut       ...    1.0000e-11
Integration weight cutoff        WCut        ...    1.0000e-14
Grids for H and He will be reduced by one unit

# of grid points (after initial pruning)     ...  27444 (   0.0 sec)
# of grid points (after weights+screening)   ...  25244 (   0.1 sec)
nearest neighbour list constructed           ...    0.0 sec
Grid point re-assignment to atoms done       ...    0.0 sec
Grid point division into batches done        ...    0.0 sec
Reduced shell lists constructed in    0.1 sec

Total number of grid points                  ...    25244
Total number of batches                      ...      419
Average number of points per batch           ...       60
Average number of grid points per atom       ...      601
Average number of shells per batch           ...   140.21 (35.23%)
Average number of basis functions per batch  ...   370.21 (34.60%)
Average number of large shells per batch     ...    98.00 (69.89%)
Average number of large basis fcns per batch ...   256.53 (69.29%)
Maximum spatial batch extension              ...   3.81,  6.43, 17.15 au
Average spatial batch extension              ...   0.09,  0.13,  0.20 au

Overlap Fitting                  UseSFitting ... on
Constructing numerical overlap ... done (      0.1 sec)
Inverting numerical overlap    ... done (      0.1 sec)
Obtaining analytic overlap     ... done (      0.0 sec)
Final contraction and storage  ... done (      0.4 sec)


General Integration Accuracy     IntAcc      ...  4.010
Radial Grid Type                 RadialGrid  ... Gauss-Chebyshev
Angular Grid (max. acc.)         AngularGrid ... Lebedev-110
Angular grid pruning method      GridPruning ... 3 (G Style)
Weight generation scheme         WeightScheme... Becke
Basis function cutoff            BFCut       ...    1.0000e-11
Integration weight cutoff        WCut        ...    1.0000e-14
Grids for H and He will be reduced by one unit

# of grid points (after initial pruning)     ...  54148 (   0.0 sec)
# of grid points (after weights+screening)   ...  49244 (   0.1 sec)
nearest neighbour list constructed           ...    0.0 sec
Grid point re-assignment to atoms done       ...    0.0 sec
Grid point division into batches done        ...    0.0 sec
Reduced shell lists constructed in    0.1 sec

Total number of grid points                  ...    49244
Total number of batches                      ...      792
Average number of points per batch           ...       62
Average number of grid points per atom       ...     1172
Average number of shells per batch           ...   139.47 (35.04%)
Average number of basis functions per batch  ...   367.71 (34.37%)
Average number of large shells per batch     ...    97.65 (70.01%)
Average number of large basis fcns per batch ...   256.76 (69.83%)
Maximum spatial batch extension              ...   4.10, 11.29, 24.13 au
Average spatial batch extension              ...   0.08,  0.12,  0.20 au

Overlap Fitting                  UseSFitting ... on
Constructing numerical overlap ... done (      0.2 sec)
Inverting numerical overlap    ... done (      0.1 sec)
Obtaining analytic overlap     ... done (      0.0 sec)
Final contraction and storage  ... done (      0.4 sec)

Time for X-Grid setup             =    2.933 sec
--------------
SCF ITERATIONS
--------------
ITER       Energy         Delta-E        Max-DP      RMS-DP      [F,P]     Damp
               ***  Starting incremental Fock matrix formation  ***
  0  -2438.0551456125   0.000000000000 0.07786250  0.00064742  0.2439631 0.7000
  1  -2438.3867684435  -0.331622831026 0.06229523  0.00051537  0.1109235 0.7000
                               ***Turning on DIIS***
  2  -2438.5331294210  -0.146360977523 0.09266368  0.00103879  0.0539415 0.0000
  3  -2438.7614755057  -0.228346084724 0.07675976  0.00038034  0.0801186 0.0000
  4  -2438.8155659081  -0.054090402405 0.03408961  0.00016043  0.0115174 0.0000
  5  -2438.8184159525  -0.002850044354 0.01257784  0.00007097  0.0091301 0.0000
  6  -2438.8194756386  -0.001059686098 0.00653989  0.00004224  0.0042133 0.0000
  7  -2438.8199935705  -0.000517931960 0.00370704  0.00002670  0.0033876 0.0000
                      *** Initiating the SOSCF procedure ***
                           *** Shutting down DIIS ***
                      *** Re-Reading the Fockian *** 
                      *** Removing any level shift *** 
ITER      Energy       Delta-E        Grad      Rot      Max-DP    RMS-DP
  8  -2438.82026131  -0.0002677424  0.002597  0.002597  0.002745  0.000017
               *** Restarting incremental Fock matrix formation ***
  9  -2438.82039506  -0.0001337446  0.001004  0.003331  0.009859  0.000084
 10  -2438.82044123  -0.0000461773  0.000689  0.006572  0.011664  0.000104
 11  -2438.82045885  -0.0000176163  0.000576  0.001873  0.010802  0.000092
 12  -2438.82047138  -0.0000125332  0.000083  0.000482  0.001398  0.000013
 13  -2438.82047156  -0.0000001801  0.000090  0.000293  0.000848  0.000007
 14  -2438.82047199  -0.0000004284  0.000011  0.000026  0.000147  0.000002
 15  -2438.82047197   0.0000000268  0.000013  0.000025  0.000106  0.000001
 16  -2438.82047198  -0.0000000113  0.000003  0.000013  0.000203  0.000001
                  ***Gradient check signals convergence***
              ***Rediagonalizing the Fockian in SOSCF/NRSCF***

               *****************************************************
               *                     SUCCESS                       *
               *           SCF CONVERGED AFTER  17 CYCLES          *
               *****************************************************

Old exchange energy                            =    -72.732962111 Eh
New exchange energy                            =    -72.734103537 Eh
Exchange energy change after final integration =     -0.001141426 Eh
Total energy after final integration           =  -2438.821613414 Eh
Final COS-X integration done in                =    28.790 sec

----------------
TOTAL SCF ENERGY
----------------

Total Energy       :        -2438.82161341 Eh          -66363.70997 eV

Components:
Nuclear Repulsion  :         3169.77379319 Eh           86253.92998 eV
Electronic Energy  :        -5608.59540661 Eh         -152617.63994 eV
One Electron Energy:        -9642.69678257 Eh         -262391.11916 eV
Two Electron Energy:         4034.10137596 Eh          109773.47922 eV

Virial components:
Potential Energy   :        -4868.35140238 Eh         -132474.57654 eV
Kinetic Energy     :         2429.52978897 Eh           66110.86657 eV
Virial Ratio       :            2.00382454


DFT components:
N(Alpha)           :      120.000025088840 electrons
N(Beta)            :      120.000025088840 electrons
N(Total)           :      240.000050177680 electrons
E(XC)              :     -176.756365841670 Eh       

---------------
SCF CONVERGENCE
---------------

  Last Energy change         ...   -9.8798e-09  Tolerance :   1.0000e-08
  Last MAX-Density change    ...    7.7608e-14  Tolerance :   1.0000e-07
  Last RMS-Density change    ...    2.0380e-16  Tolerance :   5.0000e-09
  Last Orbital Gradient      ...    1.7123e-06  Tolerance :   1.0000e-05
  Last Orbital Rotation      ...    2.6963e-06  Tolerance :   1.0000e-05

             **** THE GBW FILE WAS UPDATED (total.gbw) ****
             **** DENSITY FILE WAS UPDATED (total.scfp.tmp) ****
             **** ENERGY FILE WAS UPDATED (total.en.tmp) ****
----------------
ORBITAL ENERGIES
----------------

  NO   OCC          E(Eh)            E(eV) 
   0   2.0000     -89.048179     -2423.1241 
   1   2.0000     -89.017141     -2422.2796 
   2   2.0000     -89.012377     -2422.1499 
   3   2.0000     -14.505686      -394.7198 
   4   2.0000     -14.495602      -394.4454 
   5   2.0000     -14.479533      -394.0081 
   6   2.0000     -14.478613      -393.9831 
   7   2.0000     -14.473698      -393.8493 
   8   2.0000     -14.473635      -393.8476 
   9   2.0000     -14.468522      -393.7085 
  10   2.0000     -14.464817      -393.6077 
  11   2.0000     -10.388185      -282.6769 
  12   2.0000     -10.385450      -282.6025 
  13   2.0000     -10.383770      -282.5567 
  14   2.0000     -10.379471      -282.4398 
  15   2.0000     -10.370140      -282.1858 
  16   2.0000     -10.369515      -282.1689 
  17   2.0000     -10.367615      -282.1171 
  18   2.0000     -10.360531      -281.9244 
  19   2.0000     -10.349643      -281.6281 
  20   2.0000     -10.337840      -281.3069 
  21   2.0000     -10.328864      -281.0627 
  22   2.0000     -10.324157      -280.9346 
  23   2.0000     -10.308471      -280.5077 
  24   2.0000     -10.302590      -280.3477 
  25   2.0000     -10.299114      -280.2531 
  26   2.0000     -10.298354      -280.2325 
  27   2.0000     -10.291889      -280.0565 
  28   2.0000     -10.287073      -279.9255 
  29   2.0000     -10.286113      -279.8994 
  30   2.0000     -10.280410      -279.7442 
  31   2.0000     -10.273543      -279.5573 
  32   2.0000      -8.136639      -221.4092 
  33   2.0000      -8.113355      -220.7756 
  34   2.0000      -8.108572      -220.6455 
  35   2.0000      -6.092498      -165.7853 
  36   2.0000      -6.086043      -165.6096 
  37   2.0000      -6.081975      -165.4990 
  38   2.0000      -6.066410      -165.0754 
  39   2.0000      -6.062611      -164.9720 
  40   2.0000      -6.061642      -164.9457 
  41   2.0000      -6.060390      -164.9116 
  42   2.0000      -6.057728      -164.8392 
  43   2.0000      -6.055675      -164.7833 
  44   2.0000      -1.164039       -31.6751 
  45   2.0000      -1.155233       -31.4355 
  46   2.0000      -1.116130       -30.3714 
  47   2.0000      -1.110881       -30.2286 
  48   2.0000      -1.079159       -29.3654 
  49   2.0000      -1.023842       -27.8602 
  50   2.0000      -0.998350       -27.1665 
  51   2.0000      -0.985075       -26.8053 
  52   2.0000      -0.968700       -26.3597 
  53   2.0000      -0.964473       -26.2446 
  54   2.0000      -0.942804       -25.6550 
  55   2.0000      -0.921914       -25.0865 
  56   2.0000      -0.908913       -24.7328 
  57   2.0000      -0.905030       -24.6271 
  58   2.0000      -0.893559       -24.3150 
  59   2.0000      -0.878408       -23.9027 
  60   2.0000      -0.850014       -23.1301 
  61   2.0000      -0.844252       -22.9733 
  62   2.0000      -0.808372       -21.9969 
  63   2.0000      -0.792797       -21.5731 
  64   2.0000      -0.778148       -21.1745 
  65   2.0000      -0.763357       -20.7720 
  66   2.0000      -0.743876       -20.2419 
  67   2.0000      -0.732091       -19.9212 
  68   2.0000      -0.726826       -19.7779 
  69   2.0000      -0.716930       -19.5087 
  70   2.0000      -0.703879       -19.1535 
  71   2.0000      -0.679749       -18.4969 
  72   2.0000      -0.667730       -18.1698 
  73   2.0000      -0.652159       -17.7461 
  74   2.0000      -0.633710       -17.2441 
  75   2.0000      -0.627993       -17.0886 
  76   2.0000      -0.623695       -16.9716 
  77   2.0000      -0.619993       -16.8709 
  78   2.0000      -0.612814       -16.6755 
  79   2.0000      -0.583238       -15.8707 
  80   2.0000      -0.581160       -15.8142 
  81   2.0000      -0.576868       -15.6974 
  82   2.0000      -0.569138       -15.4870 
  83   2.0000      -0.567437       -15.4407 
  84   2.0000      -0.559447       -15.2233 
  85   2.0000      -0.553882       -15.0719 
  86   2.0000      -0.549921       -14.9641 
  87   2.0000      -0.544769       -14.8239 
  88   2.0000      -0.541178       -14.7262 
  89   2.0000      -0.533220       -14.5097 
  90   2.0000      -0.529356       -14.4045 
  91   2.0000      -0.527876       -14.3642 
  92   2.0000      -0.522554       -14.2194 
  93   2.0000      -0.516984       -14.0678 
  94   2.0000      -0.505115       -13.7449 
  95   2.0000      -0.495707       -13.4889 
  96   2.0000      -0.481452       -13.1010 
  97   2.0000      -0.476847       -12.9757 
  98   2.0000      -0.471382       -12.8270 
  99   2.0000      -0.467137       -12.7114 
 100   2.0000      -0.449341       -12.2272 
 101   2.0000      -0.446862       -12.1597 
 102   2.0000      -0.440488       -11.9863 
 103   2.0000      -0.437744       -11.9116 
 104   2.0000      -0.428788       -11.6679 
 105   2.0000      -0.422217       -11.4891 
 106   2.0000      -0.414137       -11.2692 
 107   2.0000      -0.407295       -11.0830 
 108   2.0000      -0.403238       -10.9727 
 109   2.0000      -0.399294       -10.8653 
 110   2.0000      -0.388468       -10.5707 
 111   2.0000      -0.388082       -10.5603 
 112   2.0000      -0.379485       -10.3263 
 113   2.0000      -0.376415       -10.2428 
 114   2.0000      -0.369744       -10.0613 
 115   2.0000      -0.368014       -10.0142 
 116   2.0000      -0.346726        -9.4349 
 117   2.0000      -0.326797        -8.8926 
 118   2.0000      -0.303506        -8.2588 
 119   2.0000      -0.293545        -7.9878 
 120   0.0000      -0.074909        -2.0384 
 121   0.0000      -0.034914        -0.9500 
 122   0.0000       0.002782         0.0757 
 123   0.0000       0.006630         0.1804 
 124   0.0000       0.031377         0.8538 
 125   0.0000       0.046042         1.2529 
 126   0.0000       0.048989         1.3331 
 127   0.0000       0.057337         1.5602 
 128   0.0000       0.065889         1.7929 
 129   0.0000       0.069810         1.8996 
 130   0.0000       0.079899         2.1741 
 131   0.0000       0.092189         2.5086 
 132   0.0000       0.096209         2.6180 
 133   0.0000       0.106355         2.8941 
 134   0.0000       0.108181         2.9437 
 135   0.0000       0.117198         3.1891 
 136   0.0000       0.123444         3.3591 
 137   0.0000       0.129813         3.5324 
 138   0.0000       0.134073         3.6483 
 139   0.0000       0.139469         3.7952 
 140   0.0000       0.147024         4.0007 
 141   0.0000       0.152570         4.1516 
 142   0.0000       0.160044         4.3550 
 143   0.0000       0.163720         4.4550 
 144   0.0000       0.166461         4.5296 
 145   0.0000       0.172107         4.6833 
 146   0.0000       0.182930         4.9778 
 147   0.0000       0.187100         5.0912 
 148   0.0000       0.191896         5.2218 
 149   0.0000       0.202111         5.4997 
 150   0.0000       0.205135         5.5820 
 151   0.0000       0.210194         5.7197 
 152   0.0000       0.214680         5.8418 
 153   0.0000       0.218771         5.9531 
 154   0.0000       0.224767         6.1162 
 155   0.0000       0.229617         6.2482 
 156   0.0000       0.235894         6.4190 
 157   0.0000       0.242427         6.5968 
 158   0.0000       0.248105         6.7513 
 159   0.0000       0.250799         6.8246 
 160   0.0000       0.255370         6.9490 
 161   0.0000       0.257055         6.9948 
 162   0.0000       0.263188         7.1617 
 163   0.0000       0.265466         7.2237 
 164   0.0000       0.266815         7.2604 
 165   0.0000       0.273239         7.4352 
 166   0.0000       0.275117         7.4863 
 167   0.0000       0.276536         7.5249 
 168   0.0000       0.284167         7.7326 
 169   0.0000       0.287026         7.8104 
 170   0.0000       0.287414         7.8209 
 171   0.0000       0.290795         7.9129 
 172   0.0000       0.293864         7.9965 
 173   0.0000       0.295514         8.0413 
 174   0.0000       0.299295         8.1442 
 175   0.0000       0.300793         8.1850 
 176   0.0000       0.302820         8.2402 
 177   0.0000       0.307100         8.3566 
 178   0.0000       0.311302         8.4710 
 179   0.0000       0.315777         8.5927 
 180   0.0000       0.319875         8.7042 
 181   0.0000       0.321316         8.7434 
 182   0.0000       0.322821         8.7844 
 183   0.0000       0.329362         8.9624 
 184   0.0000       0.333109         9.0644 
 185   0.0000       0.339557         9.2398 
 186   0.0000       0.340303         9.2601 
 187   0.0000       0.345158         9.3922 
 188   0.0000       0.345331         9.3969 
 189   0.0000       0.349718         9.5163 
 190   0.0000       0.352678         9.5969 
 191   0.0000       0.353309         9.6140 
 192   0.0000       0.358415         9.7530 
 193   0.0000       0.366675         9.9777 
 194   0.0000       0.368134        10.0174 
 195   0.0000       0.373570        10.1654 
 196   0.0000       0.374732        10.1970 
 197   0.0000       0.375463        10.2169 
 198   0.0000       0.378737        10.3060 
 199   0.0000       0.383890        10.4462 
 200   0.0000       0.386136        10.5073 
 201   0.0000       0.388601        10.5744 
 202   0.0000       0.389578        10.6010 
 203   0.0000       0.392637        10.6842 
 204   0.0000       0.395425        10.7601 
 205   0.0000       0.398709        10.8494 
 206   0.0000       0.401428        10.9234 
 207   0.0000       0.408930        11.1275 
 208   0.0000       0.410396        11.1674 
 209   0.0000       0.412609        11.2277 
 210   0.0000       0.414609        11.2821 
 211   0.0000       0.417138        11.3509 
 212   0.0000       0.424310        11.5461 
 213   0.0000       0.426930        11.6174 
 214   0.0000       0.430528        11.7153 
 215   0.0000       0.433457        11.7950 
 216   0.0000       0.435438        11.8489 
 217   0.0000       0.440096        11.9756 
 218   0.0000       0.441425        12.0118 
 219   0.0000       0.446039        12.1373 
 220   0.0000       0.447360        12.1733 
 221   0.0000       0.448948        12.2165 
 222   0.0000       0.454125        12.3574 
 223   0.0000       0.456583        12.4243 
 224   0.0000       0.463044        12.6001 
 225   0.0000       0.466478        12.6935 
 226   0.0000       0.469366        12.7721 
 227   0.0000       0.472976        12.8703 
 228   0.0000       0.474707        12.9174 
 229   0.0000       0.476978        12.9792 
 230   0.0000       0.478648        13.0247 
 231   0.0000       0.482267        13.1232 
 232   0.0000       0.484486        13.1835 
 233   0.0000       0.487300        13.2601 
 234   0.0000       0.493345        13.4246 
 235   0.0000       0.496219        13.5028 
 236   0.0000       0.498652        13.5690 
 237   0.0000       0.502486        13.6733 
 238   0.0000       0.504987        13.7414 
 239   0.0000       0.507712        13.8156 
 240   0.0000       0.511646        13.9226 
 241   0.0000       0.516149        14.0451 
 242   0.0000       0.518715        14.1149 
 243   0.0000       0.522570        14.2199 
 244   0.0000       0.527135        14.3441 
 245   0.0000       0.530647        14.4396 
 246   0.0000       0.535951        14.5840 
 247   0.0000       0.541094        14.7239 
 248   0.0000       0.541638        14.7387 
 249   0.0000       0.546893        14.8817 
 250   0.0000       0.547325        14.8935 
 251   0.0000       0.554422        15.0866 
 252   0.0000       0.555648        15.1200 
 253   0.0000       0.559266        15.2184 
 254   0.0000       0.562655        15.3106 
 255   0.0000       0.567832        15.4515 
 256   0.0000       0.571056        15.5392 
 257   0.0000       0.571498        15.5513 
 258   0.0000       0.581847        15.8329 
 259   0.0000       0.582994        15.8641 
 260   0.0000       0.585282        15.9263 
 261   0.0000       0.588058        16.0019 
 262   0.0000       0.590658        16.0726 
 263   0.0000       0.592076        16.1112 
 264   0.0000       0.597548        16.2601 
 265   0.0000       0.603703        16.4276 
 266   0.0000       0.607756        16.5379 
 267   0.0000       0.611792        16.6477 
 268   0.0000       0.618072        16.8186 
 269   0.0000       0.625404        17.0181 
 270   0.0000       0.633738        17.2449 
 271   0.0000       0.639496        17.4016 
 272   0.0000       0.644767        17.5450 
 273   0.0000       0.646244        17.5852 
 274   0.0000       0.652267        17.7491 
 275   0.0000       0.659733        17.9523 
 276   0.0000       0.660500        17.9731 
 277   0.0000       0.664343        18.0777 
 278   0.0000       0.668643        18.1947 
 279   0.0000       0.673707        18.3325 
 280   0.0000       0.674933        18.3659 
 281   0.0000       0.680472        18.5166 
 282   0.0000       0.681980        18.5576 
 283   0.0000       0.684507        18.6264 
 284   0.0000       0.685135        18.6435 
 285   0.0000       0.694408        18.8958 
 286   0.0000       0.696738        18.9592 
 287   0.0000       0.699524        19.0350 
 288   0.0000       0.705107        19.1869 
 289   0.0000       0.705787        19.2054 
 290   0.0000       0.709686        19.3115 
 291   0.0000       0.713879        19.4256 
 292   0.0000       0.714149        19.4330 
 293   0.0000       0.722235        19.6530 
 294   0.0000       0.724662        19.7190 
 295   0.0000       0.730842        19.8872 
 296   0.0000       0.736403        20.0385 
 297   0.0000       0.737994        20.0818 
 298   0.0000       0.741340        20.1729 
 299   0.0000       0.745003        20.2726 
 300   0.0000       0.748052        20.3555 
 301   0.0000       0.752035        20.4639 
 302   0.0000       0.752683        20.4815 
 303   0.0000       0.760161        20.6850 
 304   0.0000       0.766470        20.8567 
 305   0.0000       0.768182        20.9033 
 306   0.0000       0.774025        21.0623 
 307   0.0000       0.784061        21.3354 
 308   0.0000       0.786389        21.3987 
 309   0.0000       0.788251        21.4494 
 310   0.0000       0.794290        21.6137 
 311   0.0000       0.795767        21.6539 
 312   0.0000       0.797206        21.6931 
 313   0.0000       0.801155        21.8005 
 314   0.0000       0.802145        21.8275 
 315   0.0000       0.807403        21.9706 
 316   0.0000       0.816746        22.2248 
 317   0.0000       0.817044        22.2329 
 318   0.0000       0.822519        22.3819 
 319   0.0000       0.823431        22.4067 
 320   0.0000       0.827593        22.5200 
 321   0.0000       0.828829        22.5536 
 322   0.0000       0.837989        22.8028 
 323   0.0000       0.843758        22.9598 
 324   0.0000       0.846796        23.0425 
 325   0.0000       0.849140        23.1063 
 326   0.0000       0.850915        23.1546 
 327   0.0000       0.859343        23.3839 
 328   0.0000       0.862173        23.4609 
 329   0.0000       0.869008        23.6469 
 330   0.0000       0.870911        23.6987 
 331   0.0000       0.873609        23.7721 
 332   0.0000       0.886368        24.1193 
 333   0.0000       0.888610        24.1803 
 334   0.0000       0.893467        24.3125 
 335   0.0000       0.899024        24.4637 
 336   0.0000       0.899650        24.4807 
 337   0.0000       0.906849        24.6766 
 338   0.0000       0.913536        24.8586 
 339   0.0000       0.919931        25.0326 
 340   0.0000       0.925969        25.1969 
 341   0.0000       0.927073        25.2269 
 342   0.0000       0.932161        25.3654 
 343   0.0000       0.938792        25.5458 
 344   0.0000       0.940430        25.5904 
 345   0.0000       0.946650        25.7597 
 346   0.0000       0.948735        25.8164 
 347   0.0000       0.957733        26.0612 
 348   0.0000       0.961943        26.1758 
 349   0.0000       0.965891        26.2832 
 350   0.0000       0.975771        26.5521 
 351   0.0000       0.982552        26.7366 
 352   0.0000       0.991025        26.9672 
 353   0.0000       0.995031        27.0762 
 354   0.0000       1.003310        27.3015 
 355   0.0000       1.005658        27.3654 
 356   0.0000       1.016772        27.6678 
 357   0.0000       1.020053        27.7570 
 358   0.0000       1.022999        27.8372 
 359   0.0000       1.034708        28.1558 
 360   0.0000       1.038653        28.2632 
 361   0.0000       1.041832        28.3497 
 362   0.0000       1.058871        28.8133 
 363   0.0000       1.061674        28.8896 
 364   0.0000       1.067281        29.0422 
 365   0.0000       1.076536        29.2940 
 366   0.0000       1.090271        29.6678 
 367   0.0000       1.096702        29.8428 
 368   0.0000       1.098155        29.8823 
 369   0.0000       1.100552        29.9475 
 370   0.0000       1.109957        30.2035 
 371   0.0000       1.112593        30.2752 
 372   0.0000       1.120342        30.4860 
 373   0.0000       1.124812        30.6077 
 374   0.0000       1.134984        30.8845 
 375   0.0000       1.138839        30.9894 
 376   0.0000       1.146723        31.2039 
 377   0.0000       1.158100        31.5135 
 378   0.0000       1.164542        31.6888 
 379   0.0000       1.166901        31.7530 
 380   0.0000       1.177421        32.0392 
 381   0.0000       1.179412        32.0934 
 382   0.0000       1.188281        32.3348 
 383   0.0000       1.200278        32.6612 
 384   0.0000       1.211051        32.9544 
 385   0.0000       1.216457        33.1015 
 386   0.0000       1.224816        33.3289 
 387   0.0000       1.229481        33.4559 
 388   0.0000       1.232013        33.5248 
 389   0.0000       1.245640        33.8956 
 390   0.0000       1.256873        34.2013 
 391   0.0000       1.263267        34.3752 
 392   0.0000       1.264310        34.4036 
 393   0.0000       1.268043        34.5052 
 394   0.0000       1.273022        34.6407 
 395   0.0000       1.275681        34.7130 
 396   0.0000       1.281040        34.8589 
 397   0.0000       1.284794        34.9610 
 398   0.0000       1.292012        35.1574 
 399   0.0000       1.306476        35.5510 
 400   0.0000       1.313422        35.7400 
 401   0.0000       1.318430        35.8763 
 402   0.0000       1.321811        35.9683 
 403   0.0000       1.329781        36.1852 
 404   0.0000       1.338270        36.4162 
 405   0.0000       1.347576        36.6694 
 406   0.0000       1.349358        36.7179 
 407   0.0000       1.358856        36.9764 
 408   0.0000       1.364188        37.1215 
 409   0.0000       1.364424        37.1279 
 410   0.0000       1.368603        37.2416 
 411   0.0000       1.377487        37.4833 
 412   0.0000       1.378101        37.5000 
 413   0.0000       1.385211        37.6935 
 414   0.0000       1.390282        37.8315 
 415   0.0000       1.393692        37.9243 
 416   0.0000       1.396647        38.0047 
 417   0.0000       1.405458        38.2444 
 418   0.0000       1.421090        38.6698 
 419   0.0000       1.422881        38.7186 
 420   0.0000       1.423145        38.7257 
 421   0.0000       1.428181        38.8628 
 422   0.0000       1.437190        39.1079 
 423   0.0000       1.444968        39.3196 
 424   0.0000       1.450725        39.4762 
 425   0.0000       1.458900        39.6987 
 426   0.0000       1.460833        39.7513 
 427   0.0000       1.469363        39.9834 
 428   0.0000       1.476186        40.1690 
 429   0.0000       1.480343        40.2822 
 430   0.0000       1.483432        40.3662 
 431   0.0000       1.488368        40.5005 
 432   0.0000       1.496440        40.7202 
 433   0.0000       1.503120        40.9020 
 434   0.0000       1.507436        41.0194 
 435   0.0000       1.507736        41.0276 
 436   0.0000       1.514288        41.2059 
 437   0.0000       1.519742        41.3543 
 438   0.0000       1.531986        41.6874 
 439   0.0000       1.535975        41.7960 
 440   0.0000       1.537483        41.8370 
 441   0.0000       1.542563        41.9753 
 442   0.0000       1.544843        42.0373 
 443   0.0000       1.547639        42.1134 
 444   0.0000       1.554853        42.3097 
 445   0.0000       1.559697        42.4415 
 446   0.0000       1.561796        42.4986 
 447   0.0000       1.564898        42.5830 
 448   0.0000       1.568211        42.6732 
 449   0.0000       1.573230        42.8098 
 450   0.0000       1.576144        42.8891 
 451   0.0000       1.586733        43.1772 
 452   0.0000       1.598626        43.5008 
 453   0.0000       1.600949        43.5640 
 454   0.0000       1.603278        43.6274 
 455   0.0000       1.604174        43.6518 
 456   0.0000       1.606609        43.7180 
 457   0.0000       1.610528        43.8247 
 458   0.0000       1.611243        43.8441 
 459   0.0000       1.612667        43.8829 
 460   0.0000       1.622083        44.1391 
 461   0.0000       1.625725        44.2382 
 462   0.0000       1.629396        44.3381 
 463   0.0000       1.632911        44.4338 
 464   0.0000       1.638012        44.5726 
 465   0.0000       1.640814        44.6488 
 466   0.0000       1.646523        44.8042 
 467   0.0000       1.651002        44.9260 
 468   0.0000       1.652112        44.9562 
 469   0.0000       1.658821        45.1388 
 470   0.0000       1.665391        45.3176 
 471   0.0000       1.672393        45.5081 
 472   0.0000       1.674633        45.5691 
 473   0.0000       1.679613        45.7046 
 474   0.0000       1.683637        45.8141 
 475   0.0000       1.685360        45.8610 
 476   0.0000       1.693432        46.0806 
 477   0.0000       1.694305        46.1044 
 478   0.0000       1.699854        46.2554 
 479   0.0000       1.701845        46.3096 
 480   0.0000       1.705104        46.3982 
 481   0.0000       1.708339        46.4863 
 482   0.0000       1.716966        46.7210 
 483   0.0000       1.720551        46.8186 
 484   0.0000       1.724537        46.9270 
 485   0.0000       1.728943        47.0469 
 486   0.0000       1.735104        47.2146 
 487   0.0000       1.736760        47.2596 
 488   0.0000       1.739759        47.3412 
 489   0.0000       1.744265        47.4639 
 490   0.0000       1.746537        47.5257 
 491   0.0000       1.750070        47.6218 
 492   0.0000       1.764161        48.0053 
 493   0.0000       1.773708        48.2650 
 494   0.0000       1.777812        48.3767 
 495   0.0000       1.780850        48.4594 
 496   0.0000       1.789582        48.6970 
 497   0.0000       1.795317        48.8531 
 498   0.0000       1.798601        48.9424 
 499   0.0000       1.800648        48.9981 
 500   0.0000       1.804532        49.1038 
 501   0.0000       1.810341        49.2619 
 502   0.0000       1.815197        49.3940 
 503   0.0000       1.817126        49.4465 
 504   0.0000       1.823284        49.6141 
 505   0.0000       1.827376        49.7254 
 506   0.0000       1.836342        49.9694 
 507   0.0000       1.839377        50.0520 
 508   0.0000       1.842424        50.1349 
 509   0.0000       1.848675        50.3050 
 510   0.0000       1.850219        50.3470 
 511   0.0000       1.857838        50.5543 
 512   0.0000       1.858990        50.5857 
 513   0.0000       1.865657        50.7671 
 514   0.0000       1.869865        50.8816 
 515   0.0000       1.874133        50.9977 
 516   0.0000       1.875105        51.0242 
 517   0.0000       1.883145        51.2430 
 518   0.0000       1.888473        51.3880 
 519   0.0000       1.890026        51.4302 
 520   0.0000       1.904801        51.8323 
 521   0.0000       1.904888        51.8347 
 522   0.0000       1.915224        52.1159 
 523   0.0000       1.917577        52.1799 
 524   0.0000       1.937932        52.7338 
 525   0.0000       1.941917        52.8423 
 526   0.0000       1.943674        52.8901 
 527   0.0000       1.957023        53.2533 
 528   0.0000       1.964550        53.4581 
 529   0.0000       1.969725        53.5989 
 530   0.0000       1.974952        53.7412 
 531   0.0000       1.977203        53.8024 
 532   0.0000       1.987680        54.0875 
 533   0.0000       1.993302        54.2405 
 534   0.0000       2.002783        54.4985 
 535   0.0000       2.004266        54.5389 
 536   0.0000       2.013648        54.7942 
 537   0.0000       2.017740        54.9055 
 538   0.0000       2.020780        54.9882 
 539   0.0000       2.028238        55.1912 
 540   0.0000       2.030687        55.2578 
 541   0.0000       2.035450        55.3874 
 542   0.0000       2.038841        55.4797 
 543   0.0000       2.047347        55.7112 
 544   0.0000       2.050257        55.7903 
 545   0.0000       2.054952        55.9181 
 546   0.0000       2.063148        56.1411 
 547   0.0000       2.068887        56.2973 
 548   0.0000       2.080840        56.6225 
 549   0.0000       2.085999        56.7629 
 550   0.0000       2.092153        56.9304 
 551   0.0000       2.095898        57.0323 
 552   0.0000       2.103320        57.2342 
 553   0.0000       2.106823        57.3296 
 554   0.0000       2.116083        57.5816 
 555   0.0000       2.128171        57.9105 
 556   0.0000       2.134531        58.0835 
 557   0.0000       2.138459        58.1904 
 558   0.0000       2.146768        58.4165 
 559   0.0000       2.148039        58.4511 
 560   0.0000       2.149505        58.4910 
 561   0.0000       2.154224        58.6194 
 562   0.0000       2.173229        59.1366 
 563   0.0000       2.176487        59.2252 
 564   0.0000       2.180437        59.3327 
 565   0.0000       2.186339        59.4933 
 566   0.0000       2.189344        59.5751 
 567   0.0000       2.191088        59.6225 
 568   0.0000       2.195726        59.7487 
 569   0.0000       2.203437        59.9586 
 570   0.0000       2.208423        60.0943 
 571   0.0000       2.213941        60.2444 
 572   0.0000       2.226168        60.5771 
 573   0.0000       2.231525        60.7229 
 574   0.0000       2.245713        61.1090 
 575   0.0000       2.253962        61.3334 
 576   0.0000       2.267879        61.7121 
 577   0.0000       2.269925        61.7678 
 578   0.0000       2.272043        61.8254 
 579   0.0000       2.279404        62.0257 
 580   0.0000       2.283296        62.1316 
 581   0.0000       2.296296        62.4854 
 582   0.0000       2.297860        62.5280 
 583   0.0000       2.308748        62.8242 
 584   0.0000       2.310498        62.8718 
 585   0.0000       2.323237        63.2185 
 586   0.0000       2.324380        63.2496 
 587   0.0000       2.327053        63.3223 
 588   0.0000       2.333726        63.5039 
 589   0.0000       2.340904        63.6992 
 590   0.0000       2.345043        63.8119 
 591   0.0000       2.354093        64.0581 
 592   0.0000       2.358242        64.1710 
 593   0.0000       2.360400        64.2297 
 594   0.0000       2.395427        65.1829 
 595   0.0000       2.400502        65.3210 
 596   0.0000       2.408085        65.5273 
 597   0.0000       2.419553        65.8394 
 598   0.0000       2.425878        66.0115 
 599   0.0000       2.429269        66.1038 
 600   0.0000       2.432444        66.1902 
 601   0.0000       2.438321        66.3501 
 602   0.0000       2.440395        66.4065 
 603   0.0000       2.455798        66.8256 
 604   0.0000       2.460594        66.9562 
 605   0.0000       2.467510        67.1444 
 606   0.0000       2.481383        67.5219 
 607   0.0000       2.497155        67.9510 
 608   0.0000       2.506766        68.2126 
 609   0.0000       2.515554        68.4517 
 610   0.0000       2.523256        68.6613 
 611   0.0000       2.527238        68.7696 
 612   0.0000       2.532374        68.9094 
 613   0.0000       2.544407        69.2368 
 614   0.0000       2.565564        69.8125 
 615   0.0000       2.576215        70.1024 
 616   0.0000       2.579027        70.1789 
 617   0.0000       2.585723        70.3611 
 618   0.0000       2.588714        70.4425 
 619   0.0000       2.598127        70.6986 
 620   0.0000       2.607629        70.9572 
 621   0.0000       2.615681        71.1763 
 622   0.0000       2.625938        71.4554 
 623   0.0000       2.638835        71.8063 
 624   0.0000       2.644583        71.9628 
 625   0.0000       2.650585        72.1261 
 626   0.0000       2.659370        72.3651 
 627   0.0000       2.668781        72.6212 
 628   0.0000       2.679074        72.9013 
 629   0.0000       2.684901        73.0599 
 630   0.0000       2.687262        73.1241 
 631   0.0000       2.691181        73.2308 
 632   0.0000       2.695965        73.3609 
 633   0.0000       2.698271        73.4237 
 634   0.0000       2.709676        73.7340 
 635   0.0000       2.716203        73.9116 
 636   0.0000       2.719052        73.9892 
 637   0.0000       2.731639        74.3317 
 638   0.0000       2.736958        74.4764 
 639   0.0000       2.739422        74.5435 
 640   0.0000       2.751110        74.8615 
 641   0.0000       2.757880        75.0457 
 642   0.0000       2.764046        75.2135 
 643   0.0000       2.771775        75.4238 
 644   0.0000       2.775139        75.5154 
 645   0.0000       2.776297        75.5469 
 646   0.0000       2.782905        75.7267 
 647   0.0000       2.784768        75.7774 
 648   0.0000       2.788984        75.8921 
 649   0.0000       2.799773        76.1857 
 650   0.0000       2.805261        76.3350 
 651   0.0000       2.805964        76.3542 
 652   0.0000       2.815570        76.6156 
 653   0.0000       2.818964        76.7079 
 654   0.0000       2.832160        77.0670 
 655   0.0000       2.839635        77.2704 
 656   0.0000       2.842314        77.3433 
 657   0.0000       2.849839        77.5481 
 658   0.0000       2.863291        77.9141 
 659   0.0000       2.866649        78.0055 
 660   0.0000       2.874721        78.2251 
 661   0.0000       2.878214        78.3202 
 662   0.0000       2.879262        78.3487 
 663   0.0000       2.888609        78.6031 
 664   0.0000       2.892005        78.6955 
 665   0.0000       2.896881        78.8281 
 666   0.0000       2.897230        78.8376 
 667   0.0000       2.904929        79.0471 
 668   0.0000       2.912728        79.2594 
 669   0.0000       2.919333        79.4391 
 670   0.0000       2.928900        79.6994 
 671   0.0000       2.935628        79.8825 
 672   0.0000       2.936504        79.9063 
 673   0.0000       2.941648        80.0463 
 674   0.0000       2.948059        80.2208 
 675   0.0000       2.951881        80.3248 
 676   0.0000       2.953912        80.3800 
 677   0.0000       2.959364        80.5284 
 678   0.0000       2.973896        80.9238 
 679   0.0000       2.984037        81.1998 
 680   0.0000       2.989306        81.3431 
 681   0.0000       2.991032        81.3901 
 682   0.0000       2.996300        81.5335 
 683   0.0000       3.002089        81.6910 
 684   0.0000       3.007190        81.8298 
 685   0.0000       3.011750        81.9539 
 686   0.0000       3.021013        82.2059 
 687   0.0000       3.027317        82.3775 
 688   0.0000       3.039651        82.7131 
 689   0.0000       3.043571        82.8198 
 690   0.0000       3.047059        82.9147 
 691   0.0000       3.049416        82.9788 
 692   0.0000       3.051508        83.0357 
 693   0.0000       3.056569        83.1735 
 694   0.0000       3.064675        83.3941 
 695   0.0000       3.071350        83.5757 
 696   0.0000       3.075037        83.6760 
 697   0.0000       3.081327        83.8472 
 698   0.0000       3.085718        83.9667 
 699   0.0000       3.095488        84.2325 
 700   0.0000       3.108493        84.5864 
 701   0.0000       3.111604        84.6710 
 702   0.0000       3.122038        84.9550 
 703   0.0000       3.124854        85.0316 
 704   0.0000       3.131501        85.2125 
 705   0.0000       3.136592        85.3510 
 706   0.0000       3.144989        85.5795 
 707   0.0000       3.148810        85.6835 
 708   0.0000       3.150199        85.7213 
 709   0.0000       3.154213        85.8305 
 710   0.0000       3.160809        86.0100 
 711   0.0000       3.165656        86.1419 
 712   0.0000       3.170563        86.2754 
 713   0.0000       3.175219        86.4021 
 714   0.0000       3.175575        86.4118 
 715   0.0000       3.180333        86.5413 
 716   0.0000       3.186958        86.7215 
 717   0.0000       3.192362        86.8686 
 718   0.0000       3.196288        86.9754 
 719   0.0000       3.209937        87.3468 
 720   0.0000       3.214783        87.4787 
 721   0.0000       3.217431        87.5508 
 722   0.0000       3.223495        87.7157 
 723   0.0000       3.231335        87.9291 
 724   0.0000       3.238116        88.1136 
 725   0.0000       3.240992        88.1919 
 726   0.0000       3.242756        88.2399 
 727   0.0000       3.245619        88.3178 
 728   0.0000       3.248568        88.3980 
 729   0.0000       3.254544        88.5606 
 730   0.0000       3.264759        88.8386 
 731   0.0000       3.265993        88.8722 
 732   0.0000       3.268445        88.9389 
 733   0.0000       3.274680        89.1086 
 734   0.0000       3.275662        89.1353 
 735   0.0000       3.283280        89.3426 
 736   0.0000       3.289456        89.5107 
 737   0.0000       3.291292        89.5606 
 738   0.0000       3.300460        89.8101 
 739   0.0000       3.301461        89.8373 
 740   0.0000       3.304521        89.9206 
 741   0.0000       3.313729        90.1712 
[...]
 163   8.708     142.4   0.005792   0.005372   4.628565   4.770080     0.04 (  64->  83)    0.04 (  61->  79)    0.03 (  52->  72)
 164   8.718     142.2   0.089458   0.081827   1.492045   2.263581     0.27 (  71->  80)    0.07 (  59->  75)    0.04 (  51->  75)
 165   8.738     141.9   0.038797   0.035703  -20.146681  -20.085265     0.05 (  59->  75)    0.03 (  56->  73)    0.03 (  60->  76)
 166   8.741     141.8   0.037586   0.033869  23.799463  22.038843     0.11 (  71->  80)    0.07 (  59->  75)    0.06 (  67->  75)
 167   8.744     141.8   0.004637   0.004380  -33.042848  -33.649985     0.07 (  52->  72)    0.07 (  61->  76)    0.04 (  71->  80)
 168   8.770     141.4   0.071718   0.066625  -19.770105  -19.587987     0.06 (  71->  80)    0.06 (  70->  87)    0.06 (  70->  98)
 169   8.782     141.2   0.069684   0.068265  20.603291  18.858875     0.05 (  53->  72)    0.04 (  65->  74)    0.04 (  59->  77)
 170   8.797     140.9   0.015256   0.013162   1.128187   1.710450     0.06 (  67->  88)    0.03 (  71->  84)    0.03 (  67->  90)
 171   8.809     140.7   0.089368   0.084366  -54.790531  -51.456463     0.08 (  60->  75)    0.08 (  53->  72)    0.04 (  54->  75)
 172   8.814     140.7   0.005312   0.004894  14.901241  14.156386     0.11 (  70->  98)    0.05 (  66->  87)    0.03 (  67->  92)
 173   8.821     140.6   0.048378   0.043521  61.270864  57.412872     0.17 (  60->  75)    0.07 (  54->  75)    0.06 (  56->  75)
 174   8.833     140.4   0.013335   0.011853  18.339054  17.630992     0.06 (  55->  72)    0.05 (  55->  73)    0.03 (  59->  78)
 175   8.836     140.3   0.021753   0.020118   9.760143   9.232642     0.06 (  55->  72)    0.06 (  60->  75)    0.03 (  55->  73)
 176   8.847     140.1   0.022030   0.021384  -42.091531  -38.368287     0.09 (  52->  72)    0.06 (  62->  84)    0.04 (  62->  74)
 177   8.854     140.0   0.038048   0.035574  -1.613091  -0.578957     0.05 (  62->  84)    0.04 (  62->  74)    0.03 (  69->  93)
 178   8.862     139.9   0.011745   0.010659  -0.567212  -0.683536     0.04 (  62->  74)    0.04 (  52->  72)    0.03 (  47->  75)
 179   8.870     139.8   0.004914   0.004595  10.851317   9.798953     0.49 (  47->  75)    0.04 (  65->  75)    0.03 (  34->  75)
 180   8.876     139.7   0.003576   0.003611  -5.866966  -5.380309     0.10 (  61->  79)    0.08 (  47->  75)    0.08 (  57->  79)
 181   8.897     139.4   0.017886   0.016782  -1.277820  -1.025438     0.03 (  38->  72)    0.03 (  63->  85)    0.03 (  53->  72)
 182   8.900     139.3   0.246351   0.218070  62.006624  56.560178     0.13 (  46->  75)    0.04 (  52->  72)    0.03 (  67->  80)
 183   8.911     139.1   0.012718   0.010799  10.754765  10.305058     0.05 (  71-> 103)    0.03 (  68->  96)    0.03 (  70->  87)
 184   8.920     139.0   0.029305   0.027380  -32.908439  -28.794329     0.06 (  61->  77)    0.05 (  52->  72)    0.04 (  59->  78)
 185   8.934     138.8   0.010650   0.009349  12.581792  13.080027     0.24 (  64->  75)    0.23 (  65->  75)    0.06 (  60->  75)
 186   8.935     138.8   0.036093   0.031930   6.022885   6.353996     0.05 (  65->  75)    0.05 (  52->  72)    0.05 (  64->  75)
 187   8.949     138.5   0.002984   0.003867  11.284555  11.660489     0.19 (  70->  80)    0.04 (  70->  88)    0.03 (  70->  87)
 188   8.951     138.5   0.006392   0.006586   9.887370   7.662311     0.14 (  70->  80)    0.05 (  52->  72)    0.03 (  55->  82)
 189   8.978     138.1   0.056311   0.055205  -20.060960  -20.596753     0.17 (  70->  80)    0.03 (  59->  78)    0.03 (  71->  87)
 190   8.983     138.0   0.005031   0.003135   8.954178   7.305904     0.05 (  57->  81)    0.05 (  59->  88)    0.04 (  59->  78)
 191   8.987     138.0   0.012399   0.010935   0.786467   0.646909     0.05 (  65->  88)    0.04 (  64->  88)    0.02 (  65->  87)
 192   8.996     137.8   0.017546   0.016505  -34.224995  -32.732176     0.12 (  70->  80)    0.03 (  70->  98)    0.03 (  70->  88)
 193   9.017     137.5   0.005178   0.004133   3.931040   1.761251     0.06 (  70->  99)    0.03 (  52->  72)    0.03 (  55->  82)
 194   9.027     137.4   0.041162   0.040212  -10.443505  -11.923793     0.07 (  62->  79)    0.06 (  62->  90)    0.04 (  56->  80)
 195   9.048     137.0   0.069179   0.063307  33.839582  33.763619     0.05 (  54->  73)    0.04 (  56->  73)    0.04 (  70-> 100)
 196   9.062     136.8   0.065657   0.061357  36.002780  36.329301     0.02 (  63->  83)    0.02 (  52->  72)    0.02 (  61->  77)
 197   9.067     136.7   0.002918   0.002200  -17.850695  -16.177306     0.05 (  56->  73)    0.04 (  38->  72)    0.04 (  54->  73)
 198   9.088     136.4   0.006626   0.006317  -15.168788  -13.927324     0.05 (  58->  74)    0.02 (  65->  79)    0.02 (  52->  78)
 199   9.099     136.3   0.004455   0.004447   4.597836   4.456906     0.13 (  70-> 100)    0.04 (  71->  88)    0.04 (  70->  87)
 200   9.116     136.0   0.001754   0.000933  -4.558302  -4.264614     0.08 (  64->  79)    0.04 (  65->  79)    0.04 (  67->  80)
 201   9.124     135.9   0.006924   0.005366  -6.523460  -6.245431     0.06 (  65->  79)    0.06 (  64->  79)    0.04 (  67->  80)
 202   9.137     135.7   0.005519   0.005372  13.196288  10.637228     0.05 (  70->  88)    0.03 (  70->  84)    0.03 (  70->  94)
 203   9.146     135.6   0.010331   0.008962  -10.945111  -11.930056     0.07 (  65->  79)    0.06 (  64->  79)    0.04 (  69->  94)
 204   9.157     135.4   0.001634   0.001451  10.667225   8.476649     0.12 (  52->  82)    0.04 (  52->  83)    0.03 (  50->  73)
 205   9.179     135.1   0.006903   0.005537  -4.481551  -2.831848     0.05 (  32->  72)    0.04 (  47->  73)    0.03 (  52->  82)
 206   9.183     135.0   0.023710   0.024777  -9.031975  -8.332205     0.05 (  58->  79)    0.02 (  52->  83)    0.02 (  57->  76)
 207   9.197     134.8   0.040303   0.037467  -30.178662  -28.871908     0.03 (  69->  99)    0.03 (  53->  73)    0.02 (  60->  80)
 208   9.226     134.4   0.004127   0.003945  -10.697280  -10.424495     0.04 (  58->  79)    0.03 (  60->  81)    0.03 (  53->  73)
 209   9.229     134.3   0.003192   0.002849   0.109659  -0.958324     0.04 (  71->  84)    0.02 (  70->  88)    0.02 (  58->  79)
 210   9.240     134.2   0.015260   0.014063  -15.767551  -15.280987     0.02 (  58->  79)    0.02 (  68->  77)    0.02 (  50->  77)
 211   9.251     134.0   0.022548   0.022578  -18.810720  -17.672760     0.06 (  59->  74)    0.04 (  60->  81)    0.04 (  47->  73)
 212   9.265     133.8   0.037671   0.033745  30.797773  29.417521     0.06 (  53->  73)    0.04 (  53->  72)    0.03 (  53->  76)
 213   9.296     133.4   0.019599   0.017240  -27.279388  -24.374234     0.04 (  61->  83)    0.04 (  61->  82)    0.02 (  61->  87)
 214   9.300     133.3   0.024935   0.023103  -0.166126  -0.256808     0.05 (  71->  88)    0.04 (  69->  94)    0.04 (  71-> 101)
 215   9.312     133.1   0.018655   0.018497  -0.718078   0.258691     0.28 (  62->  93)    0.09 (  63->  93)    0.06 (  62->  96)
 216   9.319     133.0   0.009251   0.008527  -6.504447  -4.597133     0.12 (  46->  73)    0.11 (  46->  74)    0.11 (  46->  76)
 217   9.324     133.0   0.046803   0.040912  12.439449  12.476585     0.08 (  47->  73)    0.04 (  47->  74)    0.03 (  68->  77)
 218   9.361     132.4   0.019174   0.019354  -17.625661  -17.734332     0.11 (  70-> 103)    0.04 (  69->  99)    0.03 (  68->  94)
 219   9.364     132.4   0.002321   0.002360  -3.823618  -4.842316     0.08 (  65->  90)    0.05 (  64->  90)    0.04 (  70-> 103)
 220   9.368     132.3   0.010585   0.009549  24.781392  25.541467     0.04 (  49->  72)    0.04 (  64->  76)    0.04 (  57->  76)
 221   9.379     132.2   0.019433   0.017551  -3.150371  -1.166285     0.04 (  59->  81)    0.03 (  70-> 103)    0.03 (  68->  88)
 222   9.387     132.1   0.021758   0.018418  -8.915452  -10.184142     0.03 (  65->  90)    0.03 (  61->  83)    0.02 (  48->  76)
 223   9.404     131.8   0.001294   0.000996   8.523718   7.393813     0.06 (  63->  75)    0.04 (  61->  75)    0.03 (  63->  83)
 224   9.408     131.8   0.004622   0.004486   8.584754   8.910670     0.20 (  63->  75)    0.10 (  61->  75)    0.08 (  64->  75)
 225   9.410     131.8   0.006766   0.005902  -5.590189  -5.074912     0.11 (  60->  77)    0.10 (  60->  78)    0.07 (  54->  78)
 226   9.414     131.7   0.002780   0.003005   5.583366   5.803234     0.06 (  71->  84)    0.04 (  63->  75)    0.04 (  71->  87)
 227   9.418     131.6   0.011115   0.010071  12.588690  12.570281     0.05 (  55->  74)    0.03 (  55->  73)    0.03 (  68->  89)
 228   9.430     131.5   0.033265   0.026382   5.211433   4.472267     0.04 (  68->  89)    0.03 (  55->  74)    0.02 (  55->  77)
 229   9.435     131.4   0.014276   0.012591  -21.484522  -19.925491     0.17 (  52->  82)    0.11 (  52->  73)    0.07 (  50->  72)
 230   9.450     131.2   0.064797   0.057762  50.826724  46.718161     0.02 (  48->  77)    0.02 (  52->  82)    0.02 (  63->  83)
 231   9.461     131.1   0.007177   0.005914   2.342763   2.390028     0.04 (  64->  83)    0.04 (  53->  82)    0.04 (  70-> 103)
 232   9.486     130.7   0.026713   0.024446  -20.295288  -20.694827     0.05 (  49->  72)    0.04 (  60->  84)    0.02 (  58->  84)
 233   9.489     130.7   0.006631   0.006774   1.169726   1.185732     0.02 (  70-> 103)    0.02 (  60->  84)    0.02 (  64->  83)
 234   9.506     130.4   0.098346   0.091567  -37.650441  -36.628903     0.03 (  64->  83)    0.03 (  58->  84)    0.02 (  60->  84)
 235   9.511     130.4   0.001273   0.001314  -0.710382  -0.503780     0.08 (  50->  72)    0.04 (  63->  76)    0.03 (  64->  74)
 236   9.518     130.3   0.033038   0.029103  28.867030  25.167133     0.10 (  50->  72)    0.04 (  45->  73)    0.03 (  67->  77)
 237   9.527     130.1   0.036269   0.030863  -5.204100  -5.482679     0.10 (  50->  72)    0.02 (  61->  89)    0.02 (  49->  72)
 238   9.536     130.0   0.005907   0.004797  -6.074561  -5.845151     0.11 (  50->  72)    0.04 (  71-> 105)    0.03 (  61->  87)
 239   9.553     129.8   0.029865   0.027088  -18.521639  -17.774350     0.05 (  50->  72)    0.03 (  67->  76)    0.03 (  66->  77)
 240   9.558     129.7   0.005844   0.004572   0.582275   1.251235     0.36 (  61->  75)    0.11 (  59->  75)    0.08 (  51->  75)
 241   9.563     129.7   0.006393   0.005831  -10.308689  -9.940324     0.04 (  70->  84)    0.03 (  50->  72)    0.03 (  61->  75)
 242   9.568     129.6   0.006956   0.006546  16.640680  16.361197     0.06 (  61->  75)    0.02 (  59->  75)    0.02 (  70->  84)
 243   9.580     129.4   0.010831   0.009020  -9.181890  -7.641283     0.09 (  62->  76)    0.08 (  62->  74)    0.03 (  38->  73)
 244   9.583     129.4   0.000982   0.001211   2.177550   2.363667     0.18 (  48->  72)    0.07 (  48->  74)    0.03 (  48->  76)
 245   9.588     129.3   0.012681   0.011186  -14.862093  -14.330787     0.05 (  62->  76)    0.04 (  49->  72)    0.04 (  70->  84)
 246   9.603     129.1   0.001288   0.001153  -4.774024  -5.229160     0.05 (  68->  80)    0.03 (  59->  88)    0.03 (  51->  80)
 247   9.616     128.9   0.011495   0.010638  11.350022  10.708632     0.10 (  43->  73)    0.07 (  38->  72)    0.05 (  62->  76)
 248   9.622     128.9   0.020884   0.018229   1.900425   1.317918     0.05 (  70->  84)    0.03 (  61->  88)    0.03 (  71-> 106)
 249   9.629     128.8   0.014248   0.013939   2.357175   2.293481     0.04 (  62->  94)    0.03 (  68->  80)    0.03 (  62->  88)
 250   9.641     128.6   0.006297   0.004402  -4.937702  -4.521898     0.09 (  71-> 105)    0.05 (  68->  80)    0.03 (  71-> 104)
 251   9.647     128.5   0.012496   0.011793   7.627047   6.090235     0.09 (  62->  88)    0.08 (  62->  94)    0.04 (  70->  84)
 252   9.669     128.2   0.026818   0.022823  -29.979392  -25.467052     0.04 (  71-> 104)    0.04 (  71-> 103)    0.03 (  71-> 105)
 253   9.673     128.2   0.022971   0.020816  12.693840  11.458172     0.05 (  45->  74)    0.03 (  49->  72)    0.02 (  60->  88)
 254   9.678     128.1   0.016003   0.013311   5.908378   5.611241     0.04 (  61->  88)    0.03 (  61->  82)    0.02 (  48->  72)
 255   9.696     127.9   0.031370   0.027801  26.768139  24.510355     0.08 (  68->  79)    0.05 (  57->  79)    0.05 (  71-> 105)
 256   9.707     127.7   0.003220   0.002464   5.586128   4.594017     0.05 (  70->  87)    0.04 (  70->  84)    0.03 (  71-> 103)
 257   9.711     127.7   0.004233   0.003312  -7.084388  -5.859149     0.03 (  61->  87)    0.03 (  45->  74)    0.03 (  60->  87)
 258   9.735     127.4   0.023975   0.020290  20.303981  20.452947     0.04 (  65->  77)    0.03 (  59->  88)    0.03 (  64->  77)
 259   9.739     127.3   0.017707   0.014625  -28.840072  -27.006827     0.04 (  65->  77)    0.04 (  65->  78)    0.03 (  64->  77)
 260   9.747     127.2   0.002405   0.002300  -4.287926  -4.340724     0.06 (  49->  72)    0.03 (  44->  74)    0.03 (  40->  73)
 261   9.765     127.0   0.004194   0.003017  -9.283454  -8.343261     0.04 (  70-> 105)    0.03 (  59->  84)    0.02 (  57->  81)
 262   9.768     126.9   0.012225   0.011829  -21.049688  -20.543841     0.04 (  64->  77)    0.04 (  65->  78)    0.03 (  65->  77)
 263   9.781     126.8   0.018060   0.014896  30.474299  28.091240     0.06 (  61->  88)    0.04 (  68->  91)    0.03 (  70-> 104)
 264   9.796     126.6   0.003683   0.003279   9.177047   8.427337     0.08 (  38->  73)    0.05 (  28->  72)    0.04 (  46->  73)
 265   9.801     126.5   0.014004   0.012259  -36.829455  -34.140419     0.04 (  71-> 107)    0.03 (  71-> 111)    0.02 (  71-> 106)
 266   9.803     126.5   0.033468   0.032593  10.246183   9.999407     0.08 (  54->  79)    0.04 (  60->  79)    0.04 (  58->  79)
 267   9.814     126.3   0.009875   0.008398  -20.172104  -19.230541     0.05 (  71-> 103)    0.04 (  68->  96)    0.04 (  71-> 105)
 268   9.824     126.2   0.024920   0.023072  52.587978  52.893983     0.06 (  71-> 103)    0.05 (  68->  96)    0.03 (  69->  96)
 269   9.843     126.0   0.003510   0.002557  10.000268   8.521446     0.04 (  50->  72)    0.03 (  41->  73)    0.02 (  64->  84)
 270   9.871     125.6   0.001365   0.001270   2.928187   2.669535     0.06 (  69-> 101)    0.04 (  68-> 101)    0.02 (  61->  87)
 271   9.876     125.5   0.006511   0.006415  -10.157161  -10.088717     0.04 (  69-> 101)    0.04 (  71-> 104)    0.03 (  68-> 101)
 272   9.885     125.4   0.011561   0.008900   6.986865   5.034326     0.02 (  71->  89)    0.02 (  57->  76)    0.02 (  71->  88)
 273   9.893     125.3   0.003833   0.003234   0.419297   0.577029     0.05 (  42->  74)    0.04 (  41->  73)    0.04 (  48->  72)
 274   9.910     125.1   0.000359   0.000257   4.445168   3.575608     0.38 (  58->  75)    0.10 (  56->  75)    0.10 (  60->  75)
 275   9.917     125.0   0.009641   0.008650   5.729198   6.353818     0.06 (  42->  74)    0.03 (  42->  73)    0.03 (  70-> 105)
 276   9.928     124.9   0.013660   0.014188  21.614042  19.773460     0.05 (  45->  74)    0.04 (  36->  73)    0.04 (  43->  74)
 277   9.934     124.8   0.015491   0.013182  -13.365132  -11.685689     0.05 (  58->  75)    0.03 (  59->  87)    0.02 (  70-> 105)
 278   9.950     124.6   0.025030   0.021099  -9.555489  -9.945555     0.08 (  71-> 105)    0.03 (  70-> 104)    0.03 (  70-> 105)
 279   9.968     124.4   0.002960   0.002685  -2.869698  -2.755384     0.04 (  71-> 106)    0.03 (  71->  89)    0.03 (  70-> 106)
 280   9.984     124.2   0.035515   0.034334  -11.065912  -10.329699     0.09 (  47->  77)    0.06 (  47->  78)    0.05 (  70-> 105)
 281   9.987     124.1   0.035174   0.033890  32.522582  31.467343     0.06 (  60->  92)    0.05 (  60->  89)    0.05 (  60->  88)

sTD-DFT done

Total run time:       38.798 sec

           *** ORCA-CIS/TD-DFT FINISHED WITHOUT ERROR ***


-------------------------------------------------------------------------------
                          DFT DISPERSION CORRECTION                            
                                                                               
                              DFTD3 V3.1  Rev 1                                
                              USING zero damping                               
-------------------------------------------------------------------------------
The omegaB97X-D3 functional is recognized. Fit by Chai et al.
Active option DFTDOPT                   ...         3   

molecular C6(AA) [au] = 36022.988151 


            DFT-D V3
 parameters
 s6 scaling factor         :     1.0000 
 rs6 scaling factor        :     1.2810 
 s8 scaling factor         :     1.0000 
 rs8 scaling factor        :     1.0940 
 Damping factor alpha6     :    14.0000 
 Damping factor alpha8     :    16.0000 
 ad hoc parameters k1-k3   :    16.0000     1.3333    -4.0000 

 Edisp/kcal,au: -12.052979361840  -0.019207643190 
 E6   /kcal   :  -5.608972933 
 E8   /kcal   :  -6.444006429 
 % E8         :  53.464012799 

-------------------------   ----------------
Dispersion correction           -0.019207643
-------------------------   ----------------


-------------------------   --------------------
FINAL SINGLE POINT ENERGY     -2438.840821033221
-------------------------   --------------------


                            ***************************************
                            *     ORCA property calculations      *
                            ***************************************

                                    ---------------------
                                    Active property flags
                                    ---------------------
   (+) Dipole Moment
   (+) Quadrupole Moment


------------------------------------------------------------------------------
                       ORCA ELECTRIC PROPERTIES CALCULATION
------------------------------------------------------------------------------

Dipole Moment Calculation                       ... on
Quadrupole Moment Calculation                   ... on
Polarizability Calculation                      ... off
GBWName                                         ... total_job2.gbw
Electron density file                           ... total_job2.scfp.tmp

-------------
DIPOLE MOMENT
-------------
                                X             Y             Z
Electronic contribution:     33.24175       5.76870       3.10302
Nuclear contribution   :    -34.53884      -5.44873      -3.19605
                        -----------------------------------------
Total Dipole Moment    :     -1.29709       0.31997      -0.09303
                        -----------------------------------------
Magnitude (a.u.)       :      1.33921
Magnitude (Debye)      :      3.40400


------------------------
QUADRUPOLE MOMENT (A.U.)
------------------------

                XX           YY           ZZ           XY           XZ           YZ
  NUC     23890.03168   2589.32927    547.62917   -498.09842   2783.11811   -327.16536
  EL     -23999.76845  -2734.78737   -701.10826    485.87912  -2779.70711    321.35212
  TOT      -109.73677   -145.45809   -153.47909    -12.21930      3.41100     -5.81324

--------------------------------------------------------------------------
[[20496,1],3]: A high-performance Open MPI point-to-point messaging module
was unable to find any relevant network interfaces:

Module: OpenFabrics (openib)
  Host: cx1-103-2-3

Another transport will be used instead, although this may result in
lower performance.
--------------------------------------------------------------------------

Timings for individual modules:

Sum of individual times         ...      145.525 sec (=   2.425 min)
GTO integral calculation        ...        4.656 sec (=   0.078 min)   3.2 %
SCF iterations                  ...       99.189 sec (=   1.653 min)  68.2 %
CIS module                      ...       41.680 sec (=   0.695 min)  28.6 %



                             ****ORCA TERMINATED NORMALLY****
TOTAL RUN TIME: 0 days 0 hours 9 minutes 14 seconds 856 msec
