
                                 *****************
                                 * O   R   C   A *
                                 *****************

           --- An Ab Initio, DFT and Semiempirical electronic structure package ---

                  #######################################################
                  #                        -***-                        #
                  #  Department of molecular theory and spectroscopy    #
                  #              Directorship: Frank Neese              #
                  # Max Planck Institute for Chemical Energy Conversion #
                  #                  D-45470 Muelheim/Ruhr              #
                  #                       Germany                       #
                  #                                                     #
                  #                  All rights reserved                #
                  #                        -***-                        #
                  #######################################################


                         Program Version 4.0.0 -  RELEASE  -


 With contributions from (in alphabetic order):
   Daniel Aravena         : Magnetic Properties
   Michael Atanasov       : Ab Initio Ligand Field Theory
   Ute Becker             : Parallelization
   Martin Brehm           : Molecular dynamics
   Dmytro Bykov           : SCF Hessian
   Vijay G. Chilkuri      : MRCI spin determinant printing
   Dipayan Datta          : RHF DLPNO-CCSD density
   Achintya Kumar Dutta   : EOM-CC, STEOM-CC
   Dmitry Ganyushin       : Spin-Orbit,Spin-Spin,Magnetic field MRCI
   Yang Guo               : DLPNO-NEVPT2, CIM, IAO-localization
   Andreas Hansen         : Spin unrestricted coupled pair/coupled cluster methods
   Lee Huntington         : MR-EOM, pCC
   Robert Izsak           : Overlap fitted RIJCOSX, COSX-SCS-MP3, EOM
   Christian Kollmar      : KDIIS, OOCD, Brueckner-CCSD(T), CCSD density
   Simone Kossmann        : Meta GGA functionals, TD-DFT gradient, OOMP2, MP2 Hessian
   Martin Krupicka        : AUTO-CI
   Dagmar Lenk            : GEPOL surface
   Dimitrios Liakos       : Extrapolation schemes; parallel MDCI
   Dimitrios Manganas     : ROCIS; embedding schemes
   Dimitrios Pantazis     : SARC Basis sets
   Taras Petrenko         : DFT Hessian,TD-DFT gradient, ASA, ECA, R-Raman, ABS, FL, XAS/XES, NRVS
   Peter Pinski           : DLPNO-MP2
   Christoph Reimann      : Effective Core Potentials
   Marius Retegan         : Local ZFS, SOC
   Christoph Riplinger    : Optimizer, TS searches, QM/MM, DLPNO-CCSD(T), (RO)-DLPNO pert. Triples
   Tobias Risthaus        : Range-separated hybrids, TD-DFT gradient, RPA, STAB
   Michael Roemelt        : Restricted open shell CIS
   Masaaki Saitow         : Open-shell DLPNO
   Barbara Sandhoefer     : DKH picture change effects
   Kantharuban Sivalingam : CASSCF convergence, NEVPT2, FIC-MRCI
   Georgi Stoychev        : AutoAux
   Boris Wezisla          : Elementary symmetry handling
   Frank Wennmohs         : Technical directorship


 We gratefully acknowledge several colleagues who have allowed us to
 interface, adapt or use parts of their codes:
   Stefan Grimme, W. Hujo, H. Kruse,             : VdW corrections, initial TS optimization,
                  C. Bannwarth                     DFT functionals, gCP, sTDA/sTD-DF
   Ed Valeev                                     : LibInt (2-el integral package), F12 methods
   Garnet Chan, S. Sharma, J. Yang, R. Olivares  : DMRG
   Ulf Ekstrom                                   : XCFun DFT Library
   Mihaly Kallay                                 : mrcc  (arbitrary order and MRCC methods)
   Jiri Pittner, Ondrej Demel                    : Mk-CCSD
   Frank Weinhold                                : gennbo (NPA and NBO analysis)
   Christopher J. Cramer and Donald G. Truhlar   : smd solvation model


 Your calculation uses the libint2 library for the computation of 2-el integrals
 For citations please refer to: http://libint.valeyev.net

 This ORCA versions uses:
   CBLAS   interface :  Fast vector & matrix operations
   LAPACKE interface :  Fast linear algebra routines
   SCALAPACK package :  Parallel linear algebra routines


Your calculation utilizes the atom-pairwise dispersion correction
with the zero-damping scheme (D30)
Cite in your paper:
S.Grimme, J.Antony, S.Ehrlich and H.Krieg, J.Chem.Phys., 132, (2010), 154104 
   

XCFun DFT library Copyright 2009-2010 Ulf Ekstrom and contributors.
See http://admol.org/xcfun for more information. This is free soft-
ware; see the source code for copying conditions. There is ABSOLUTELY
NO WARRANTY; not even for MERCHANTABILITY or FITNESS FOR A PARTICULAR
PURPOSE. For details see the documentation. Scientific users of this 
library should cite U. Ekstrom, L. Visscher, R. Bast, A. J. Thorvald-
sen and K. Ruud; J.Chem.Theor.Comp. 2010, DOI: 10.1021/ct100117s
XCFun Version 0.99 
Your calculation utilizes the basis: def2-TZVP
   F. Weigend and R. Ahlrichs, Phys. Chem. Chem. Phys. 7, 3297 (2005).

Your calculation utilizes the auxiliary basis: def2/J
   F. Weigend, Phys. Chem. Chem. Phys. 8, 1057 (2006).

================================================================================
                                        WARNINGS
                       Please study these warnings very carefully!
================================================================================

Warning: TCutStore was < 0. Adjusted to Thresh (uncritical)
INFO   : Checking CIS options ...

WARNING: CIS/ROCIS methods need fully converged wavefunctions
  ===> : Setting SCFConvForced true
         You can overwrite this default with %scf ConvForced false 


INFO   : the flag for use of LIBINT has been found!

Your calculation utilizes the atom-pairwise dispersion correction
with the zero-damping scheme (D30)
Cite in your paper:
S.Grimme, J.Antony, S.Ehrlich and H.Krieg, J.Chem.Phys., 132, (2010), 154104 
   

XCFun DFT library Copyright 2009-2010 Ulf Ekstrom and contributors.
See http://admol.org/xcfun for more information. This is free soft-
ware; see the source code for copying conditions. There is ABSOLUTELY
NO WARRANTY; not even for MERCHANTABILITY or FITNESS FOR A PARTICULAR
PURPOSE. For details see the documentation. Scientific users of this 
library should cite U. Ekstrom, L. Visscher, R. Bast, A. J. Thorvald-
sen and K. Ruud; J.Chem.Theor.Comp. 2010, DOI: 10.1021/ct100117s
XCFun Version 0.99 
Your calculation utilizes the basis: def2-TZVP
   F. Weigend and R. Ahlrichs, Phys. Chem. Chem. Phys. 7, 3297 (2005).

Your calculation utilizes the auxiliary basis: def2/J
   F. Weigend, Phys. Chem. Chem. Phys. 8, 1057 (2006).

================================================================================
                                        WARNINGS
                       Please study these warnings very carefully!
================================================================================

INFO   : Checking CIS options ...

INFO   : the flag for use of LIBINT has been found!

================================================================================
                                       INPUT FILE
================================================================================
NAME = total.inp
|  1> # 
|  2> !wB97X-D3 def2-TZVP def2/J RIJCOSX Grid5 FinalGrid6 TightSCF
|  3> %pal 
|  4>  nprocs 24
|  5> end
|  6> %tddft
|  7>   Mode sTDDFT
|  8>   nroots 2
|  9>   Ethresh 10.0
| 10>   maxcore 5000
| 11>   triplets true
| 12> end
| 13> * xyz 0 1 
| 14> C 6.88179044 3.21973381 -0.58213007
| 15> C 6.60120859 1.86109874 -0.70428427
| 16> C 7.63409963 0.92625726 -0.50452243
| 17> C 8.94427065 1.41242636 -0.23262170
| 18> C 9.22891645 2.78060235 -0.10364658
| 19> C 8.17579493 3.67563489 -0.27423200
| 20> C 7.73750951 -0.52234625 -0.57651831
| 21> C 9.11659800 -0.82935711 -0.38911462
| 22> N 9.81650782 0.34106855 -0.15650119
| 23> C 9.62346460 -2.13545549 -0.46437414
| 24> C 8.72112706 -3.15706770 -0.75316219
| 25> C 7.35591968 -2.88824554 -0.92171664
| 26> C 6.83065937 -1.58747597 -0.81447736
| 27> H 6.67127470 -3.70878692 -1.11593285
| 28> H 10.81629658 0.40591995 -0.00932140
| 29> H 9.07541851 -4.18086181 -0.83403637
| 30> H 5.59720527 1.54250373 -0.96935269
| 31> H 10.23623105 3.12768126 0.11017945
| 32> H 8.35877552 4.74295544 -0.18382273
| 33> H 6.08695936 3.94466798 -0.73410650
| 34> S 1.29656980 0.41430283 1.07904288
| 35> C 1.62707073 -0.75885917 -0.21588802
| 36> N 0.52699661 -1.23796578 -0.78260894
| 37> N -0.62437029 -0.73500676 -0.25899824
| 38> C -0.42697488 0.14272494 0.72183853
| 39> C 2.97409291 -1.13290697 -0.58984421
| 40> N 3.27633795 -1.99266510 -1.55260791
| 41> N 4.62209885 -2.17804529 -1.70979433
| 42> C 5.36803517 -1.44645909 -0.89593946
| 43> S 4.39879386 -0.45280058 0.21765986
| 44> C -6.60618673 -0.09752413 -1.55864211
| 45> C -7.17500244 -0.74413859 -2.65391931
| 46> C -6.63117775 -1.94107933 -3.12493146
| 47> C -5.50088190 -2.47975377 -2.50721445
| 48> C -4.92414516 -1.83242907 -1.41656536
| 49> C -5.48015110 -0.64262744 -0.91506091
| 50> C -4.82624205 0.03830841 0.23586784
| 51> C -5.59382302 0.75312351 1.26178592
| 52> N -5.00199665 1.51655305 2.17699207
| 53> C -3.62228310 1.53713615 2.16966918
| 54> C -2.87064355 0.72037286 1.24717562
| 55> N -3.49449627 -0.00416187 0.26331922
| 56> C -2.81415573 2.25873944 3.04703622
| 57> S -1.13688429 1.92559660 2.74709632
| 58> C -1.47783383 0.81427091 1.43887519
| 59> C -7.07550857 0.62712598 1.36575901
| 60> C -7.72313589 -0.60748071 1.17991638
| 61> C -9.10643460 -0.70613106 1.31419875
| 62> C -9.86436882 0.42221515 1.63472286
| 63> C -9.22978004 1.64877225 1.83876194
| 64> C -7.84528908 1.74960585 1.71404379
| 65> H -7.34739474 2.70230465 1.87553698
| 66> H -9.81534558 2.52721796 2.09835093
| 67> H -10.94397964 0.34355059 1.73293889
| 68> H -9.59469423 -1.66651472 1.17034075
| 69> H -7.13943952 -1.49429436 0.94590589
| 70> H -4.03986687 -2.24415581 -0.93739113
| 71> H -5.06637707 -3.40389186 -2.87981795
| 72> H -7.08041481 -2.44544568 -3.97658414
| 73> H -8.04302709 -0.31069369 -3.14405995
| 74> H -7.02428353 0.84498259 -1.21398952
| 75> H 10.68038183 -2.33855740 -0.31645531
| 76> H -3.13361659 2.93533097 3.82947226
| 77> *
| 78> $new_job
| 79> # 
| 80> !wB97X-D3 def2-TZVP def2/J RIJCOSX Grid5 FinalGrid6 TightSCF
| 81> %pal 
| 82>  nprocs 24
| 83> end
| 84> %elprop
| 85>    dipole     true
| 86>    quadrupole true
| 87> end
| 88> %tddft
| 89>   Mode sTDDFT
| 90>   nroots 2
| 91>   Ethresh 10.0
| 92>   maxcore 5000
| 93> end
| 94> * xyz 0 1 
| 95> C 6.88179044 3.21973381 -0.58213007
| 96> C 6.60120859 1.86109874 -0.70428427
| 97> C 7.63409963 0.92625726 -0.50452243
| 98> C 8.94427065 1.41242636 -0.23262170
| 99> C 9.22891645 2.78060235 -0.10364658
|100> C 8.17579493 3.67563489 -0.27423200
|101> C 7.73750951 -0.52234625 -0.57651831
|102> C 9.11659800 -0.82935711 -0.38911462
|103> N 9.81650782 0.34106855 -0.15650119
|104> C 9.62346460 -2.13545549 -0.46437414
|105> C 8.72112706 -3.15706770 -0.75316219
|106> C 7.35591968 -2.88824554 -0.92171664
|107> C 6.83065937 -1.58747597 -0.81447736
|108> H 6.67127470 -3.70878692 -1.11593285
|109> H 10.81629658 0.40591995 -0.00932140
|110> H 9.07541851 -4.18086181 -0.83403637
|111> H 5.59720527 1.54250373 -0.96935269
|112> H 10.23623105 3.12768126 0.11017945
|113> H 8.35877552 4.74295544 -0.18382273
|114> H 6.08695936 3.94466798 -0.73410650
|115> S 1.29656980 0.41430283 1.07904288
|116> C 1.62707073 -0.75885917 -0.21588802
|117> N 0.52699661 -1.23796578 -0.78260894
|118> N -0.62437029 -0.73500676 -0.25899824
|119> C -0.42697488 0.14272494 0.72183853
|120> C 2.97409291 -1.13290697 -0.58984421
|121> N 3.27633795 -1.99266510 -1.55260791
|122> N 4.62209885 -2.17804529 -1.70979433
|123> C 5.36803517 -1.44645909 -0.89593946
|124> S 4.39879386 -0.45280058 0.21765986
|125> C -6.60618673 -0.09752413 -1.55864211
|126> C -7.17500244 -0.74413859 -2.65391931
|127> C -6.63117775 -1.94107933 -3.12493146
|128> C -5.50088190 -2.47975377 -2.50721445
|129> C -4.92414516 -1.83242907 -1.41656536
|130> C -5.48015110 -0.64262744 -0.91506091
|131> C -4.82624205 0.03830841 0.23586784
|132> C -5.59382302 0.75312351 1.26178592
|133> N -5.00199665 1.51655305 2.17699207
|134> C -3.62228310 1.53713615 2.16966918
|135> C -2.87064355 0.72037286 1.24717562
|136> N -3.49449627 -0.00416187 0.26331922
|137> C -2.81415573 2.25873944 3.04703622
|138> S -1.13688429 1.92559660 2.74709632
|139> C -1.47783383 0.81427091 1.43887519
|140> C -7.07550857 0.62712598 1.36575901
|141> C -7.72313589 -0.60748071 1.17991638
|142> C -9.10643460 -0.70613106 1.31419875
|143> C -9.86436882 0.42221515 1.63472286
|144> C -9.22978004 1.64877225 1.83876194
|145> C -7.84528908 1.74960585 1.71404379
|146> H -7.34739474 2.70230465 1.87553698
|147> H -9.81534558 2.52721796 2.09835093
|148> H -10.94397964 0.34355059 1.73293889
|149> H -9.59469423 -1.66651472 1.17034075
|150> H -7.13943952 -1.49429436 0.94590589
|151> H -4.03986687 -2.24415581 -0.93739113
|152> H -5.06637707 -3.40389186 -2.87981795
|153> H -7.08041481 -2.44544568 -3.97658414
|154> H -8.04302709 -0.31069369 -3.14405995
|155> H -7.02428353 0.84498259 -1.21398952
|156> H 10.68038183 -2.33855740 -0.31645531
|157> H -3.13361659 2.93533097 3.82947226
|158> *
|159> 
|160>                          ****END OF INPUT****
================================================================================


                 $$$$$$$$$$$$$$$$$$$$$$$$$$$$$$$$$$$$$$$$$$$$$$ 
                 $ THERE ARE  2 JOBS TO BE PROCESSED THIS RUN $
                 $$$$$$$$$$$$$$$$$$$$$$$$$$$$$$$$$$$$$$$$$$$$$$ 




                 $$$$$$$$$$$$$$$$  JOB NUMBER  1 $$$$$$$$$$$$$$


                       ****************************
                       * Single Point Calculation *
                       ****************************

---------------------------------
CARTESIAN COORDINATES (ANGSTROEM)
---------------------------------
  C      6.881790    3.219734   -0.582130
  C      6.601209    1.861099   -0.704284
  C      7.634100    0.926257   -0.504522
  C      8.944271    1.412426   -0.232622
  C      9.228916    2.780602   -0.103647
  C      8.175795    3.675635   -0.274232
  C      7.737510   -0.522346   -0.576518
  C      9.116598   -0.829357   -0.389115
  N      9.816508    0.341069   -0.156501
  C      9.623465   -2.135455   -0.464374
  C      8.721127   -3.157068   -0.753162
  C      7.355920   -2.888246   -0.921717
  C      6.830659   -1.587476   -0.814477
  H      6.671275   -3.708787   -1.115933
  H     10.816297    0.405920   -0.009321
  H      9.075419   -4.180862   -0.834036
  H      5.597205    1.542504   -0.969353
  H     10.236231    3.127681    0.110179
  H      8.358776    4.742955   -0.183823
  H      6.086959    3.944668   -0.734106
  S      1.296570    0.414303    1.079043
  C      1.627071   -0.758859   -0.215888
  N      0.526997   -1.237966   -0.782609
  N     -0.624370   -0.735007   -0.258998
  C     -0.426975    0.142725    0.721839
  C      2.974093   -1.132907   -0.589844
  N      3.276338   -1.992665   -1.552608
  N      4.622099   -2.178045   -1.709794
  C      5.368035   -1.446459   -0.895939
  S      4.398794   -0.452801    0.217660
  C     -6.606187   -0.097524   -1.558642
  C     -7.175002   -0.744139   -2.653919
  C     -6.631178   -1.941079   -3.124931
  C     -5.500882   -2.479754   -2.507214
  C     -4.924145   -1.832429   -1.416565
  C     -5.480151   -0.642627   -0.915061
  C     -4.826242    0.038308    0.235868
  C     -5.593823    0.753124    1.261786
  N     -5.001997    1.516553    2.176992
  C     -3.622283    1.537136    2.169669
  C     -2.870644    0.720373    1.247176
  N     -3.494496   -0.004162    0.263319
  C     -2.814156    2.258739    3.047036
  S     -1.136884    1.925597    2.747096
  C     -1.477834    0.814271    1.438875
  C     -7.075509    0.627126    1.365759
  C     -7.723136   -0.607481    1.179916
  C     -9.106435   -0.706131    1.314199
  C     -9.864369    0.422215    1.634723
  C     -9.229780    1.648772    1.838762
  C     -7.845289    1.749606    1.714044
  H     -7.347395    2.702305    1.875537
  H     -9.815346    2.527218    2.098351
  H    -10.943980    0.343551    1.732939
  H     -9.594694   -1.666515    1.170341
  H     -7.139440   -1.494294    0.945906
  H     -4.039867   -2.244156   -0.937391
  H     -5.066377   -3.403892   -2.879818
  H     -7.080415   -2.445446   -3.976584
  H     -8.043027   -0.310694   -3.144060
  H     -7.024284    0.844983   -1.213990
  H     10.680382   -2.338557   -0.316455
  H     -3.133617    2.935331    3.829472

----------------------------
CARTESIAN COORDINATES (A.U.)
----------------------------
  NO LB      ZA    FRAG     MASS         X           Y           Z
   0 C     6.0000    0    12.011   13.004699    6.084415   -1.100066
   1 C     6.0000    0    12.011   12.474476    3.516967   -1.330904
   2 C     6.0000    0    12.011   14.426358    1.750373   -0.953409
   3 C     6.0000    0    12.011   16.902222    2.669099   -0.439591
   4 C     6.0000    0    12.011   17.440125    5.254577   -0.195864
   5 C     6.0000    0    12.011   15.450013    6.945943   -0.518223
   6 C     6.0000    0    12.011   14.621774   -0.987091   -1.089462
   7 C     6.0000    0    12.011   17.227873   -1.567258   -0.735320
   8 N     7.0000    0    14.007   18.550511    0.644526   -0.295744
   9 C     6.0000    0    12.011   18.185713   -4.035426   -0.877540
  10 C     6.0000    0    12.011   16.480542   -5.965993   -1.423270
  11 C     6.0000    0    12.011   13.900674   -5.457993   -1.741792
  12 C     6.0000    0    12.011   12.908076   -2.999895   -1.539139
  13 H     1.0000    0     1.008   12.606882   -7.008592   -2.108807
  14 H     1.0000    0     1.008   20.439838    0.767078   -0.017615
  15 H     1.0000    0     1.008   17.150056   -7.900684   -1.576100
  16 H     1.0000    0     1.008   10.577185    2.914910   -1.831811
  17 H     1.0000    0     1.008   19.343673    5.910461    0.208209
  18 H     1.0000    0     1.008   15.795797    8.962887   -0.347375
  19 H     1.0000    0     1.008   11.502686    7.454342   -1.387260
  20 S    16.0000    0    32.060    2.450162    0.782919    2.039096
  21 C     6.0000    0    12.011    3.074718   -1.434036   -0.407969
  22 N     7.0000    0    14.007    0.995879   -2.339416   -1.478917
  23 N     7.0000    0    14.007   -1.179889   -1.388961   -0.489436
  24 C     6.0000    0    12.011   -0.806866    0.269711    1.364077
  25 C     6.0000    0    12.011    5.620221   -2.140884   -1.114644
  26 N     7.0000    0    14.007    6.191381   -3.765591   -2.934004
  27 N     7.0000    0    14.007    8.734501   -4.115909   -3.231043
  28 C     6.0000    0    12.011   10.144116   -2.733412   -1.693080
  29 S    16.0000    0    32.060    8.312516   -0.855669    0.411318
  30 C     6.0000    0    12.011  -12.483884   -0.184294   -2.945407
  31 C     6.0000    0    12.011  -13.558790   -1.406218   -5.015181
  32 C     6.0000    0    12.011  -12.531110   -3.668108   -5.905265
  33 C     6.0000    0    12.011  -10.395160   -4.686056   -4.737949
  34 C     6.0000    0    12.011   -9.305286   -3.462789   -2.676921
  35 C     6.0000    0    12.011  -10.355985   -1.214390   -1.729215
  36 C     6.0000    0    12.011   -9.120276    0.072392    0.445726
  37 C     6.0000    0    12.011  -10.570794    1.423197    2.384430
  38 N     7.0000    0    14.007   -9.452404    2.865870    4.113919
  39 C     6.0000    0    12.011   -6.845123    2.904766    4.100081
  40 C     6.0000    0    12.011   -5.424730    1.361307    2.356820
  41 N     7.0000    0    14.007   -6.603641   -0.007865    0.497601
  42 C     6.0000    0    12.011   -5.317984    4.268399    5.758064
  43 S    16.0000    0    32.060   -2.148400    3.638850    5.191260
  44 C     6.0000    0    12.011   -2.792701    1.538749    2.719080
  45 C     6.0000    0    12.011  -13.370773    1.185096    2.580910
  46 C     6.0000    0    12.011  -14.594612   -1.147972    2.229719
  47 C     6.0000    0    12.011  -17.208667   -1.334394    2.483476
  48 C     6.0000    0    12.011  -18.640956    0.797871    3.089179
  49 C     6.0000    0    12.011  -17.441757    3.115728    3.474756
  50 C     6.0000    0    12.011  -14.825448    3.306276    3.239073
  51 H     1.0000    0     1.008  -13.884564    5.106616    3.544251
  52 H     1.0000    0     1.008  -18.548315    4.775750    3.965309
  53 H     1.0000    0     1.008  -20.681124    0.649217    3.274780
  54 H     1.0000    0     1.008  -18.131344   -3.149256    2.211624
  55 H     1.0000    0     1.008  -13.491585   -2.823807    1.787503
  56 H     1.0000    0     1.008   -7.634242   -4.240840   -1.771413
  57 H     1.0000    0     1.008   -9.574065   -6.432423   -5.442067
  58 H     1.0000    0     1.008  -13.380045   -4.621223   -7.514655
  59 H     1.0000    0     1.008  -15.199118   -0.587126   -5.941412
  60 H     1.0000    0     1.008  -13.273972    1.596786   -2.294108
  61 H     1.0000    0     1.008   20.182997   -4.419233   -0.598014
  62 H     1.0000    0     1.008   -5.921677    5.546972    7.236654

--------------------------------
INTERNAL COORDINATES (ANGSTROEM)
--------------------------------
 C      0   0   0     0.000000000000     0.00000000     0.00000000
 C      1   0   0     1.392672637974     0.00000000     0.00000000
 C      2   1   0     1.407372475914   119.18951219     0.00000000
 C      3   2   1     1.423670784422   118.40360549   357.68895251
 C      4   3   2     1.403411326963   122.48795363     2.65316747
 C      5   4   3     1.392568694558   117.51247007   358.94263571
 C      3   2   1     1.454073292239   134.98433706   181.89562986
 C      7   3   2     1.425223096373   106.07568786   174.19661919
 N      8   7   3     1.383430153472   109.23297571     2.48875303
 C      8   7   3     1.403021996900   122.89161298   183.46454432
 C     10   8   7     1.393306528204   117.36958339     0.83969043
 C     11  10   8     1.401594501533   121.00444564   358.17449350
 C     12  11  10     1.406911557517   122.12792598     0.23532831
 H     12  11  10     1.086161517067   119.37872282   181.87237413
 H      9   8   7     1.012642661203   125.31850262   181.25913626
 H     11  10   8     1.086378131317   119.68390975   179.15371079
 H      2   1   3     1.086179871959   119.58938394   181.13525809
 H      5   4   3     1.086677525417   121.16272491   179.62164632
 H      6   5   4     1.086659509171   119.58723206   180.12851190
 H      1   2   3     1.086454247469   119.42464774   180.08903163
 S     17   2   1     4.895327070562   141.03565471   271.97103950
 C     21  17   2     1.778309865785    71.58280746   221.75760556
 N     22  21  17     1.326981090447   113.27242487   209.62816100
 N     23  22  21     1.361169232450   113.79912603     0.00000000
 C     24  23  22     1.330946525770   113.68546322     0.03713351
 C     22  21  17     1.447143303939   122.11893257    29.65404548
 N     26  22  21     1.325688518598   124.57702278   180.54896172
 N     27  26  22     1.367532736517   113.31279238   180.09340781
 C     28  27  26     1.324386314845   114.12631045   358.59350434
 S     26  22  21     1.773240063194   122.07631274     0.15665762
 C     24  23  22     6.154476924503   141.18526371   161.57754170
 C     31  24  23     1.393303167535   120.97924868     9.75877219
 C     32  31  24     1.396518841252   120.25960173    27.74062310
 C     33  32  31     1.396178056438   119.78298882   359.02676972
 C     34  33  32     1.393258759891   120.14566444     0.59585403
 C     35  34  33     1.405801279497   120.58140848     0.81239653
 C     36  35  34     1.488592511423   119.29006382   181.10281388
 C     37  36  35     1.467190880412   122.25413363   214.53273383
 N     38  37  36     1.330671038149   121.85393594   189.76008194
 C     39  38  37     1.379886505760   116.71866501   355.96977097
 C     40  39  38     1.443280517868   121.04230356   357.37721568
 N     37  36  35     1.332705565943   116.12379834    36.40227581
 C     40  39  38     1.394114083266   125.73091693   180.58294994
 S     43  40  39     1.736141578010   110.60769620   176.59402692
 C     41  40  39     1.409072207184   112.96120167   183.49017767
 C     38  37  36     1.490663560328   121.84371542    11.90979914
 C     46  38  37     1.406489355711   121.51099547    39.98409663
 C     47  46  38     1.393297874661   120.43551807   178.43795012
 C     48  47  46     1.396554745278   120.24749703     0.02318116
 C     49  48  47     1.395986097864   119.78367459   359.12926340
 C     50  49  48     1.393749349829   120.13562689     0.44377362
 H     51  50  49     1.087020619741   120.33839897   180.21002088
 H     50  49  48     1.087170782712   119.99996296   180.62141706
 H     49  48  47     1.086919511376   120.08818682   179.63026215
 H     48  47  46     1.086935768501   119.72170877   180.14438102
 H     47  46  38     1.087152616521   119.81857838   359.43999546
 H     35  34  33     1.086772720164   120.39438297   180.46393999
 H     34  33  32     1.087041409006   119.99622386   180.86333504
 H     33  32  31     1.086973614418   120.06712542   179.69729953
 H     32  31  24     1.087004655612   119.69689216   207.98507854
 H     31  24  23     1.087156501709   113.36842530   217.16295518
 H     10   8   7     1.086372126477   121.21212941   180.02458632
 H     43  40  39     1.082606805923   127.39285991   357.24746520

---------------------------
INTERNAL COORDINATES (A.U.)
---------------------------
 C      0   0   0     0.000000000000     0.00000000     0.00000000
 C      1   0   0     2.631769879976     0.00000000     0.00000000
 C      2   1   0     2.659548547897   119.18951219     0.00000000
 C      3   2   1     2.690347887423   118.40360549   357.68895251
 C      4   3   2     2.652063061204   122.48795363     2.65316747
 C      5   4   3     2.631573455387   117.51247007   358.94263571
 C      3   2   1     2.747800300981   134.98433706   181.89562986
 C      7   3   2     2.693281331884   106.07568786   174.19661919
 N      8   7   3     2.614304115471   109.23297571     2.48875303
 C      8   7   3     2.651327334008   122.89161298   183.46454432
 C     10   8   7     2.632967758911   117.36958339     0.83969043
 C     11  10   8     2.648629758708   121.00444564   358.17449350
 C     12  11  10     2.658677538355   122.12792598     0.23532831
 H     12  11  10     2.052547804462   119.37872282   181.87237413
 H      9   8   7     1.913617301199   125.31850262   181.25913626
 H     11  10   8     2.052957146071   119.68390975   179.15371079
 H      2   1   3     2.052582490180   119.58938394   181.13525809
 H      5   4   3     2.053522918925   121.16272491   179.62164632
 H      6   5   4     2.053488873154   119.58723206   180.12851190
 H      1   2   3     2.053100984752   119.42464774   180.08903163
 S     17   2   1     9.250827499333   141.03565471   271.97103950
 C     21  17   2     3.360518627585    71.58280746   221.75760556
 N     22  21  17     2.507630845838   113.27242487   209.62816100
 N     23  22  21     2.572237071251   113.79912603     0.00000000
 C     24  23  22     2.515124432598   113.68546322     0.03713351
 C     22  21  17     2.734704520983   122.11893257    29.65404548
 N     26  22  21     2.505188239035   124.57702278   180.54896172
 N     27  26  22     2.584262351189   113.31279238   180.09340781
 C     28  27  26     2.502727430570   114.12631045   358.59350434
 S     26  22  21     3.350938089134   122.07631274     0.15665762
 C     24  23  22    11.630275884848   141.18526371   161.57754170
 C     31  24  23     2.632961408167   120.97924868     9.75877219
 C     32  31  24     2.639038150828   120.25960173    27.74062310
 C     33  32  31     2.638394160859   119.78298882   359.02676972
 C     34  33  32     2.632877489881   120.14566444     0.59585403
 C     35  34  33     2.656579416966   120.58140848     0.81239653
 C     36  35  34     2.813032171595   119.29006382   181.10281388
 C     37  36  35     2.772588950166   122.25413363   214.53273383
 N     38  37  36     2.514603836443   121.85393594   189.76008194
 C     39  38  37     2.607607591779   116.71866501   355.96977097
 C     40  39  38     2.727404913195   121.04230356   357.37721568
 N     37  36  35     2.518448536784   116.12379834    36.40227581
 C     40  39  38     2.634493816815   125.73091693   180.58294994
 S     43  40  39     3.280832112153   110.60769620   176.59402692
 C     41  40  39     2.662760574498   112.96120167   183.49017767
 C     38  37  36     2.816945886835   121.84371542    11.90979914
 C     46  38  37     2.657879692569   121.51099547    39.98409663
 C     47  46  38     2.632951406084   120.43551807   178.43795012
 C     48  47  46     2.639105999604   120.24749703     0.02318116
 C     49  48  47     2.638031411724   119.78367459   359.12926340
 C     50  49  48     2.633804570509   120.13562689     0.44377362
 H     51  50  49     2.054171273236   120.33839897   180.21002088
 H     50  49  48     2.054455040126   119.99996296   180.62141706
 H     49  48  47     2.053980206116   120.08818682   179.63026215
 H     48  47  46     2.054010927630   119.72170877   180.14438102
 H     47  46  38     2.054420711000   119.81857838   359.43999546
 H     35  34  33     2.053702810926   120.39438297   180.46393999
 H     34  33  32     2.054210559254   119.99622386   180.86333504
 H     33  32  31     2.054082446049   120.06712542   179.69729953
 H     32  31  24     2.054141105405   119.69689216   207.98507854
 H     31  24  23     2.054428052943   113.36842530   217.16295518
 H     10   8   7     2.052945798566   121.21212941   180.02458632
 H     43  40  39     2.045830373913   127.39285991   357.24746520

---------------------
BASIS SET INFORMATION
---------------------
There are 4 groups of distinct atoms

 Group   1 Type C   : 11s6p2d1f contracted to 5s3p2d1f pattern {62111/411/11/1}
 Group   2 Type N   : 11s6p2d1f contracted to 5s3p2d1f pattern {62111/411/11/1}
 Group   3 Type H   : 5s1p contracted to 3s1p pattern {311/1}
 Group   4 Type S   : 14s9p3d1f contracted to 5s5p2d1f pattern {73211/51111/21/1}

Atom   0C    basis set group =>   1
Atom   1C    basis set group =>   1
Atom   2C    basis set group =>   1
Atom   3C    basis set group =>   1
Atom   4C    basis set group =>   1
Atom   5C    basis set group =>   1
Atom   6C    basis set group =>   1
Atom   7C    basis set group =>   1
Atom   8N    basis set group =>   2
Atom   9C    basis set group =>   1
Atom  10C    basis set group =>   1
Atom  11C    basis set group =>   1
Atom  12C    basis set group =>   1
Atom  13H    basis set group =>   3
Atom  14H    basis set group =>   3
Atom  15H    basis set group =>   3
Atom  16H    basis set group =>   3
Atom  17H    basis set group =>   3
Atom  18H    basis set group =>   3
Atom  19H    basis set group =>   3
Atom  20S    basis set group =>   4
Atom  21C    basis set group =>   1
Atom  22N    basis set group =>   2
Atom  23N    basis set group =>   2
Atom  24C    basis set group =>   1
Atom  25C    basis set group =>   1
Atom  26N    basis set group =>   2
Atom  27N    basis set group =>   2
Atom  28C    basis set group =>   1
Atom  29S    basis set group =>   4
Atom  30C    basis set group =>   1
Atom  31C    basis set group =>   1
Atom  32C    basis set group =>   1
Atom  33C    basis set group =>   1
Atom  34C    basis set group =>   1
Atom  35C    basis set group =>   1
Atom  36C    basis set group =>   1
Atom  37C    basis set group =>   1
Atom  38N    basis set group =>   2
Atom  39C    basis set group =>   1
Atom  40C    basis set group =>   1
Atom  41N    basis set group =>   2
Atom  42C    basis set group =>   1
Atom  43S    basis set group =>   4
Atom  44C    basis set group =>   1
Atom  45C    basis set group =>   1
Atom  46C    basis set group =>   1
Atom  47C    basis set group =>   1
Atom  48C    basis set group =>   1
Atom  49C    basis set group =>   1
Atom  50C    basis set group =>   1
Atom  51H    basis set group =>   3
Atom  52H    basis set group =>   3
Atom  53H    basis set group =>   3
Atom  54H    basis set group =>   3
Atom  55H    basis set group =>   3
Atom  56H    basis set group =>   3
Atom  57H    basis set group =>   3
Atom  58H    basis set group =>   3
Atom  59H    basis set group =>   3
Atom  60H    basis set group =>   3
Atom  61H    basis set group =>   3
Atom  62H    basis set group =>   3
-------------------------------
AUXILIARY BASIS SET INFORMATION
-------------------------------
There are 4 groups of distinct atoms

 Group   1 Type C   : 12s5p4d2f1g contracted to 6s4p3d1f1g pattern {711111/2111/211/2/1}
 Group   2 Type N   : 12s5p4d2f1g contracted to 6s4p3d1f1g pattern {711111/2111/211/2/1}
 Group   3 Type H   : 5s2p1d contracted to 3s1p1d pattern {311/2/1}
 Group   4 Type S   : 14s5p5d2f1g contracted to 8s4p3d1f1g pattern {71111111/2111/311/2/1}

Atom   0C    basis set group =>   1
Atom   1C    basis set group =>   1
Atom   2C    basis set group =>   1
Atom   3C    basis set group =>   1
Atom   4C    basis set group =>   1
Atom   5C    basis set group =>   1
Atom   6C    basis set group =>   1
Atom   7C    basis set group =>   1
Atom   8N    basis set group =>   2
Atom   9C    basis set group =>   1
Atom  10C    basis set group =>   1
Atom  11C    basis set group =>   1
Atom  12C    basis set group =>   1
Atom  13H    basis set group =>   3
Atom  14H    basis set group =>   3
Atom  15H    basis set group =>   3
Atom  16H    basis set group =>   3
Atom  17H    basis set group =>   3
Atom  18H    basis set group =>   3
Atom  19H    basis set group =>   3
Atom  20S    basis set group =>   4
Atom  21C    basis set group =>   1
Atom  22N    basis set group =>   2
Atom  23N    basis set group =>   2
Atom  24C    basis set group =>   1
Atom  25C    basis set group =>   1
Atom  26N    basis set group =>   2
Atom  27N    basis set group =>   2
Atom  28C    basis set group =>   1
Atom  29S    basis set group =>   4
Atom  30C    basis set group =>   1
Atom  31C    basis set group =>   1
Atom  32C    basis set group =>   1
Atom  33C    basis set group =>   1
Atom  34C    basis set group =>   1
Atom  35C    basis set group =>   1
Atom  36C    basis set group =>   1
Atom  37C    basis set group =>   1
Atom  38N    basis set group =>   2
Atom  39C    basis set group =>   1
Atom  40C    basis set group =>   1
Atom  41N    basis set group =>   2
Atom  42C    basis set group =>   1
Atom  43S    basis set group =>   4
Atom  44C    basis set group =>   1
Atom  45C    basis set group =>   1
Atom  46C    basis set group =>   1
Atom  47C    basis set group =>   1
Atom  48C    basis set group =>   1
Atom  49C    basis set group =>   1
Atom  50C    basis set group =>   1
Atom  51H    basis set group =>   3
Atom  52H    basis set group =>   3
Atom  53H    basis set group =>   3
Atom  54H    basis set group =>   3
Atom  55H    basis set group =>   3
Atom  56H    basis set group =>   3
Atom  57H    basis set group =>   3
Atom  58H    basis set group =>   3
Atom  59H    basis set group =>   3
Atom  60H    basis set group =>   3
Atom  61H    basis set group =>   3
Atom  62H    basis set group =>   3
-------------------------
ECP PARAMETER INFORMATION
-------------------------



--------------------------------------------------------------------------
[[56017,1],1]: A high-performance Open MPI point-to-point messaging module
was unable to find any relevant network interfaces:

Module: OpenFabrics (openib)
  Host: cx1-136-7-2

Another transport will be used instead, although this may result in
lower performance.
--------------------------------------------------------------------------


           ************************************************************
           *        Program running with 24 parallel MPI-processes    *
           *              working on a common directory               *
           ************************************************************
------------------------------------------------------------------------------
                           ORCA GTO INTEGRAL CALCULATION
                           -- RI-GTO INTEGRALS CHOSEN --
------------------------------------------------------------------------------

                         BASIS SET STATISTICS AND STARTUP INFO

Gaussian basis set:
 # of primitive gaussian shells          ... 1015
 # of primitive gaussian functions       ... 2227
 # of contracted shells                  ...  566
 # of contracted basis functions         ... 1496
 Highest angular momentum                ...    3
 Maximum contraction depth               ...    7
Auxiliary gaussian basis set:
 # of primitive gaussian shells          ... 1217
 # of primitive gaussian functions       ... 3405
 # of contracted shells                  ...  761
 # of contracted aux-basis functions     ... 2371
 Highest angular momentum                ...    4
 Maximum contraction depth               ...    7
Ratio of auxiliary to basis functions    ...  1.58
Integral package used                  ... LIBINT
 One Electron integrals                  
   ECP integrals                         ... done
 Ordering auxiliary basis shells         ... done
 Integral threshhold             Thresh  ...  2.500e-11
 Primitive cut-off               TCut    ...  2.500e-12
 Pre-screening matrix                    ... done
 Shell pair data                         ... 
 Ordering of the shell pairs             ... done (   0.022 sec) 67143 of 160461 pairs
 Determination of significant pairs      ... done (   0.000 sec)
 Creation of shell pair data             ... done (   0.014 sec)
 Storage of shell pair data              ... done (   0.171 sec)
 Shell pair data done in (   0.208 sec)
 Computing two index integrals           ... done
 Cholesky decomposition of the V-matrix  ... done


Timings:
 Total evaluation time                   ...   9.942 sec (  0.166 min)
 One electron matrix time                ...   2.958 sec (  0.049 min) = 29.8%
 Schwartz matrix evaluation time         ...   4.938 sec (  0.082 min) = 49.7%
 Two index repulsion integral time       ...   0.755 sec (  0.013 min) =  7.6%
 Cholesky decomposition of V             ...   1.033 sec (  0.017 min) = 10.4%
 Three index repulsion integral time     ...   0.000 sec (  0.000 min) =  0.0%

--------------------------------------------------------------------------
[[55940,1],6]: A high-performance Open MPI point-to-point messaging module
was unable to find any relevant network interfaces:

Module: OpenFabrics (openib)
  Host: cx1-136-7-2

Another transport will be used instead, although this may result in
lower performance.
--------------------------------------------------------------------------


           ************************************************************
           *        Program running with 24 parallel MPI-processes    *
           *              working on a common directory               *
           ************************************************************
-------------------------------------------------------------------------------
                                 ORCA SCF
-------------------------------------------------------------------------------

------------
SCF SETTINGS
------------
Hamiltonian:
 Density Functional     Method          .... DFT(GTOs)
 Exchange Functional    Exchange        .... WB97X-D3
 Correlation Functional Correlation     .... WB97X-D3
 Gradients option       PostSCFGGA      .... off
 Hybrid DFT is turned on
   Fraction HF Exchange ScalHFX         ....  0.195728
   Scaling of DF-GGA-X  ScalDFX         ....  0.000000
   Scaling of DF-GGA-C  ScalDFC         ....  1.000000
   Scaling of DF-LDA-C  ScalLDAC        ....  1.000000
   Perturbative correction              ....  0.000000
 Long-range corrected/Screened/Range-Separated Hybrid DFT is turned on
   Amount of maximum screened exact exchange              ....  0.804272
   Range separation parameter mu (erf(mu*r12)/r12)        ....  0.250000
 RI-approximation to the Coulomb term is turned on
   Number of auxiliary basis functions  .... 2371
   RIJ-COSX (HFX calculated with COS-X)).... on


General Settings:
 Integral files         IntName         .... total
 Hartree-Fock type      HFTyp           .... RHF
 Total Charge           Charge          ....    0
 Multiplicity           Mult            ....    1
 Number of Electrons    NEL             ....  320
 Basis Dimension        Dim             .... 1496
 Nuclear Repulsion      ENuc            ....   4975.5148164694 Eh

Convergence Acceleration:
 DIIS                   CNVDIIS         .... on
   Start iteration      DIISMaxIt       ....    12
   Startup error        DIISStart       ....  0.200000
   # of expansion vecs  DIISMaxEq       ....     5
   Bias factor          DIISBfac        ....   1.050
   Max. coefficient     DIISMaxC        ....  10.000
 Newton-Raphson         CNVNR           .... off
 SOSCF                  CNVSOSCF        .... on
   Start iteration      SOSCFMaxIt      ....   150
   Startup grad/error   SOSCFStart      ....  0.003300
 Level Shifting         CNVShift        .... on
   Level shift para.    LevelShift      ....    0.2500
   Turn off err/grad.   ShiftErr        ....    0.0010
 Zerner damping         CNVZerner       .... off
 Static damping         CNVDamp         .... on
   Fraction old density DampFac         ....    0.7000
   Max. Damping (<1)    DampMax         ....    0.9800
   Min. Damping (>=0)   DampMin         ....    0.0000
   Turn off err/grad.   DampErr         ....    0.1000
 Fernandez-Rico         CNVRico         .... off

SCF Procedure:
 Maximum # iterations   MaxIter         ....   125
 SCF integral mode      SCFMode         .... Direct
   Integral package                     .... LIBINT
 Reset frequeny         DirectResetFreq ....    20
 Integral Threshold     Thresh          ....  2.500e-11 Eh
 Primitive CutOff       TCut            ....  2.500e-12 Eh

Convergence Tolerance:
 Convergence Check Mode ConvCheckMode   .... Total+1el-Energy
 Convergence forced     ConvForced      .... 1
 Energy Change          TolE            ....  1.000e-08 Eh
 1-El. energy change                    ....  1.000e-05 Eh
 Orbital Gradient       TolG            ....  1.000e-05
 Orbital Rotation angle TolX            ....  1.000e-05
 DIIS Error             TolErr          ....  5.000e-07


Diagonalization of the overlap matrix:
Smallest eigenvalue                        ... 6.351e-06
Time for diagonalization                   ...    0.708 sec
Threshold for overlap eigenvalues          ... 1.000e-08
Number of eigenvalues below threshold      ... 0
Time for construction of square roots      ...    0.827 sec
Total time needed                          ...    1.554 sec

-------------------
DFT GRID GENERATION
-------------------

General Integration Accuracy     IntAcc      ...  5.010
Radial Grid Type                 RadialGrid  ... Gauss-Chebyshev
Angular Grid (max. acc.)         AngularGrid ... Lebedev-434
Angular grid pruning method      GridPruning ... 3 (G Style)
Weight generation scheme         WeightScheme... Becke
Basis function cutoff            BFCut       ...    1.0000e-11
Integration weight cutoff        WCut        ...    1.0000e-14
Grids for H and He will be reduced by one unit

# of grid points (after initial pruning)     ... 600230 (   0.0 sec)
# of grid points (after weights+screening)   ... 522487 (   2.6 sec)
nearest neighbour list constructed           ...    0.0 sec
Grid point re-assignment to atoms done       ...    0.3 sec
Grid point division into batches done        ...    6.6 sec
Reduced shell lists constructed in    7.8 sec

Total number of grid points                  ...   522487
Total number of batches                      ...     8195
Average number of points per batch           ...       63
Average number of grid points per atom       ...     8293
Average number of shells per batch           ...   141.65 (25.03%)
Average number of basis functions per batch  ...   375.89 (25.13%)
Average number of large shells per batch     ...    98.61 (69.62%)
Average number of large basis fcns per batch ...   260.79 (69.38%)
Maximum spatial batch extension              ...   8.61,  8.43, 22.84 au
Average spatial batch extension              ...   0.05,  0.05,  0.06 au

Time for grid setup =   11.223 sec

------------------------------
INITIAL GUESS: MODEL POTENTIAL
------------------------------
Loading Hartree-Fock densities                     ... done
Calculating cut-offs                               ... done
Setting up the integral package                    ... done
Initializing the effective Hamiltonian             ... done
Starting the Coulomb interaction                   ... done (   1.2 sec)
Reading the grid                                   ... done
Mapping shells                                     ... done
Starting the XC term evaluation                    ... done (   3.0 sec)
  promolecular density results
     # of electrons  =    319.990696705
     EX              =   -299.926879497
     EC              =    -11.083082312
     EX+EC           =   -311.009961809
Transforming the Hamiltonian                       ... done (   0.4 sec)
Diagonalizing the Hamiltonian                      ... done (   0.7 sec)
Back transforming the eigenvectors                 ... done (   0.2 sec)
Now organizing SCF variables                       ... done
                      ------------------
                      INITIAL GUESS DONE (  17.2 sec)
                      ------------------
--------------------
COSX GRID GENERATION
--------------------

General Integration Accuracy     IntAcc      ...  3.340
Radial Grid Type                 RadialGrid  ... Gauss-Chebyshev
Angular Grid (max. acc.)         AngularGrid ... Lebedev-50
Angular grid pruning method      GridPruning ... 3 (G Style)
Weight generation scheme         WeightScheme... Becke
Basis function cutoff            BFCut       ...    1.0000e-11
Integration weight cutoff        WCut        ...    1.0000e-14
Grids for H and He will be reduced by one unit

# of grid points (after initial pruning)     ...  31880 (   0.0 sec)
# of grid points (after weights+screening)   ...  28932 (   0.2 sec)
nearest neighbour list constructed           ...    0.0 sec
Grid point re-assignment to atoms done       ...    0.0 sec
Grid point division into batches done        ...    0.0 sec
Reduced shell lists constructed in    0.1 sec

Total number of grid points                  ...    28932
Total number of batches                      ...      483
Average number of points per batch           ...       59
Average number of grid points per atom       ...      459
Average number of shells per batch           ...   158.36 (27.98%)
Average number of basis functions per batch  ...   424.55 (28.38%)
Average number of large shells per batch     ...   110.45 (69.75%)
Average number of large basis fcns per batch ...   296.82 (69.91%)
Maximum spatial batch extension              ...   5.79,  3.57, 16.13 au
Average spatial batch extension              ...   0.12,  0.10,  0.18 au

Overlap Fitting                  UseSFitting ... on
Constructing numerical overlap ... done (      0.2 sec)
Inverting numerical overlap    ... done (      0.2 sec)
Obtaining analytic overlap     ... done (      0.0 sec)
Final contraction and storage  ... done (      1.1 sec)


General Integration Accuracy     IntAcc      ...  3.670
Radial Grid Type                 RadialGrid  ... Gauss-Chebyshev
Angular Grid (max. acc.)         AngularGrid ... Lebedev-50
Angular grid pruning method      GridPruning ... 3 (G Style)
Weight generation scheme         WeightScheme... Becke
Basis function cutoff            BFCut       ...    1.0000e-11
Integration weight cutoff        WCut        ...    1.0000e-14
Grids for H and He will be reduced by one unit

# of grid points (after initial pruning)     ...  39840 (   0.0 sec)
# of grid points (after weights+screening)   ...  36011 (   0.2 sec)
nearest neighbour list constructed           ...    0.0 sec
Grid point re-assignment to atoms done       ...    0.0 sec
Grid point division into batches done        ...    0.0 sec
Reduced shell lists constructed in    0.1 sec

Total number of grid points                  ...    36011
Total number of batches                      ...      590
Average number of points per batch           ...       61
Average number of grid points per atom       ...      572
Average number of shells per batch           ...   157.08 (27.75%)
Average number of basis functions per batch  ...   420.54 (28.11%)
Average number of large shells per batch     ...   110.23 (70.18%)
Average number of large basis fcns per batch ...   296.54 (70.51%)
Maximum spatial batch extension              ...   5.72,  3.55, 18.07 au
Average spatial batch extension              ...   0.11,  0.09,  0.18 au

Overlap Fitting                  UseSFitting ... on
Constructing numerical overlap ... done (      0.2 sec)
Inverting numerical overlap    ... done (      0.2 sec)
Obtaining analytic overlap     ... done (      0.0 sec)
Final contraction and storage  ... done (      1.1 sec)


General Integration Accuracy     IntAcc      ...  4.010
Radial Grid Type                 RadialGrid  ... Gauss-Chebyshev
Angular Grid (max. acc.)         AngularGrid ... Lebedev-110
Angular grid pruning method      GridPruning ... 3 (G Style)
Weight generation scheme         WeightScheme... Becke
Basis function cutoff            BFCut       ...    1.0000e-11
Integration weight cutoff        WCut        ...    1.0000e-14
Grids for H and He will be reduced by one unit

# of grid points (after initial pruning)     ...  77776 (   0.0 sec)
# of grid points (after weights+screening)   ...  69610 (   0.4 sec)
nearest neighbour list constructed           ...    0.0 sec
Grid point re-assignment to atoms done       ...    0.0 sec
Grid point division into batches done        ...    0.1 sec
Reduced shell lists constructed in    0.3 sec

Total number of grid points                  ...    69610
Total number of batches                      ...     1118
Average number of points per batch           ...       62
Average number of grid points per atom       ...     1105
Average number of shells per batch           ...   153.62 (27.14%)
Average number of basis functions per batch  ...   412.42 (27.57%)
Average number of large shells per batch     ...   108.83 (70.84%)
Average number of large basis fcns per batch ...   292.17 (70.84%)
Maximum spatial batch extension              ...   6.11,  3.92, 18.07 au
Average spatial batch extension              ...   0.09,  0.08,  0.14 au

Overlap Fitting                  UseSFitting ... on
Constructing numerical overlap ... done (      0.3 sec)
Inverting numerical overlap    ... done (      0.2 sec)
Obtaining analytic overlap     ... done (      0.0 sec)
Final contraction and storage  ... done (      1.1 sec)

Time for X-Grid setup             =    7.154 sec
--------------
SCF ITERATIONS
--------------
ITER       Energy         Delta-E        Max-DP      RMS-DP      [F,P]     Damp
               ***  Starting incremental Fock matrix formation  ***
  0  -2883.9723496617   0.000000000000 0.24740233  0.00072408  0.1584748 0.7000
  1  -2884.3798930185  -0.407543356797 0.20258366  0.00058170  0.0961916 0.7000
                               ***Turning on DIIS***
  2  -2884.5661559909  -0.186262972480 0.26748473  0.00114279  0.0551941 0.0000
  3  -2884.8752034612  -0.309047470234 0.17431766  0.00041970  0.0476671 0.0000
  4  -2884.9302485848  -0.055045123579 0.01855562  0.00012367  0.0148980 0.0000
  5  -2884.9336906721  -0.003442087368 0.01041203  0.00005401  0.0042159 0.0000
                      *** Initiating the SOSCF procedure ***
                           *** Shutting down DIIS ***
                      *** Re-Reading the Fockian *** 
                      *** Removing any level shift *** 
ITER      Energy       Delta-E        Grad      Rot      Max-DP    RMS-DP
  6  -2884.93441514  -0.0007244645  0.002273  0.002273  0.004503  0.000031
               *** Restarting incremental Fock matrix formation ***
  7  -2884.93470842  -0.0002932812  0.001467  0.004604  0.022857  0.000124
  8  -2884.93484133  -0.0001329164  0.000581  0.005110  0.014639  0.000086
  9  -2884.93487878  -0.0000374488  0.000266  0.000866  0.012893  0.000072
 10  -2884.93489512  -0.0000163374  0.000128  0.000473  0.002147  0.000012
 11  -2884.93489547  -0.0000003503  0.000099  0.000185  0.001457  0.000008
 12  -2884.93489657  -0.0000010972  0.000028  0.000142  0.000121  0.000001
 13  -2884.93489660  -0.0000000318  0.000011  0.000057  0.000289  0.000002
 14  -2884.93489675  -0.0000001519  0.000004  0.000023  0.000349  0.000002
                  ***Gradient check signals convergence***
              ***Rediagonalizing the Fockian in SOSCF/NRSCF***

               *****************************************************
               *                     SUCCESS                       *
               *           SCF CONVERGED AFTER  15 CYCLES          *
               *****************************************************

Old exchange energy                            =    -93.833941479 Eh
New exchange energy                            =    -93.834984459 Eh
Exchange energy change after final integration =     -0.001042980 Eh
Total energy after final integration           =  -2884.935939833 Eh
Final COS-X integration done in                =    85.729 sec

----------------
TOTAL SCF ENERGY
----------------

Total Energy       :        -2884.93593983 Eh          -78503.09794 eV

Components:
Nuclear Repulsion  :         4975.51481647 Eh          135390.64128 eV
Electronic Energy  :        -7860.45075630 Eh         -213893.73923 eV
One Electron Energy:       -13844.52376690 Eh         -376728.64421 eV
Two Electron Energy:         5984.07301060 Eh          162834.90499 eV

Virial components:
Potential Energy   :        -5758.53929578 Eh         -156697.82060 eV
Kinetic Energy     :         2873.60335594 Eh           78194.72266 eV
Virial Ratio       :            2.00394368


DFT components:
N(Alpha)           :      159.999976612291 electrons
N(Beta)            :      159.999976612291 electrons
N(Total)           :      319.999953224581 electrons
E(XC)              :     -222.766837204710 Eh       

---------------
SCF CONVERGENCE
---------------

  Last Energy change         ...   -1.0124e-07  Tolerance :   1.0000e-08
  Last MAX-Density change    ...    2.7366e-14  Tolerance :   1.0000e-07
  Last RMS-Density change    ...    1.4325e-16  Tolerance :   5.0000e-09
  Last Orbital Gradient      ...    2.0738e-06  Tolerance :   1.0000e-05
  Last Orbital Rotation      ...    5.2104e-06  Tolerance :   1.0000e-05

             **** THE GBW FILE WAS UPDATED (total.gbw) ****
             **** DENSITY FILE WAS UPDATED (total.scfp.tmp) ****
             **** ENERGY FILE WAS UPDATED (total.en.tmp) ****
----------------
ORBITAL ENERGIES
----------------

  NO   OCC          E(Eh)            E(eV) 
   0   2.0000     -89.017252     -2422.2826 
   1   2.0000     -89.009179     -2422.0629 
   2   2.0000     -89.007671     -2422.0219 
   3   2.0000     -14.476181      -393.9169 
   4   2.0000     -14.468526      -393.7086 
   5   2.0000     -14.466320      -393.6486 
   6   2.0000     -14.463652      -393.5760 
   7   2.0000     -14.462278      -393.5386 
   8   2.0000     -14.452325      -393.2678 
   9   2.0000     -14.446409      -393.1068 
  10   2.0000     -10.380978      -282.4808 
  11   2.0000     -10.377120      -282.3758 
  12   2.0000     -10.376590      -282.3614 
  13   2.0000     -10.373449      -282.2759 
  14   2.0000     -10.356703      -281.8202 
  15   2.0000     -10.356041      -281.8022 
  16   2.0000     -10.347094      -281.5587 
  17   2.0000     -10.343191      -281.4525 
  18   2.0000     -10.339853      -281.3617 
  19   2.0000     -10.338791      -281.3328 
  20   2.0000     -10.337483      -281.2972 
  21   2.0000     -10.334301      -281.2106 
  22   2.0000     -10.319901      -280.8188 
  23   2.0000     -10.307237      -280.4742 
  24   2.0000     -10.305334      -280.4224 
  25   2.0000     -10.301102      -280.3072 
  26   2.0000     -10.299939      -280.2756 
  27   2.0000     -10.299145      -280.2540 
  28   2.0000     -10.295316      -280.1498 
  29   2.0000     -10.294076      -280.1161 
  30   2.0000     -10.293932      -280.1121 
  31   2.0000     -10.293090      -280.0892 
  32   2.0000     -10.292604      -280.0760 
  33   2.0000     -10.292491      -280.0729 
  34   2.0000     -10.292472      -280.0724 
  35   2.0000     -10.290836      -280.0279 
  36   2.0000     -10.290825      -280.0276 
  37   2.0000     -10.290597      -280.0214 
  38   2.0000     -10.290495      -280.0186 
  39   2.0000     -10.288279      -279.9583 
  40   2.0000     -10.286362      -279.9061 
  41   2.0000     -10.286253      -279.9032 
  42   2.0000     -10.284573      -279.8574 
  43   2.0000     -10.283094      -279.8172 
  44   2.0000      -8.112676      -220.7571 
  45   2.0000      -8.106007      -220.5757 
  46   2.0000      -8.104498      -220.5346 
  47   2.0000      -6.065651      -165.0548 
  48   2.0000      -6.061581      -164.9440 
  49   2.0000      -6.060515      -164.9150 
  50   2.0000      -6.058983      -164.8733 
  51   2.0000      -6.057423      -164.8309 
  52   2.0000      -6.055337      -164.7741 
  53   2.0000      -6.053705      -164.7297 
  54   2.0000      -6.053015      -164.7109 
  55   2.0000      -6.051642      -164.6736 
  56   2.0000      -1.153511       -31.3886 
  57   2.0000      -1.144619       -31.1467 
  58   2.0000      -1.113308       -30.2946 
  59   2.0000      -1.107468       -30.1357 
  60   2.0000      -1.038008       -28.2456 
  61   2.0000      -1.019317       -27.7370 
  62   2.0000      -0.992807       -27.0156 
  63   2.0000      -0.986333       -26.8395 
  64   2.0000      -0.978188       -26.6178 
  65   2.0000      -0.975062       -26.5328 
  66   2.0000      -0.973282       -26.4843 
  67   2.0000      -0.945875       -25.7386 
  68   2.0000      -0.939262       -25.5586 
  69   2.0000      -0.915418       -24.9098 
  70   2.0000      -0.911237       -24.7960 
  71   2.0000      -0.906836       -24.6763 
  72   2.0000      -0.884584       -24.0707 
  73   2.0000      -0.878165       -23.8961 
  74   2.0000      -0.871960       -23.7272 
  75   2.0000      -0.865824       -23.5603 
  76   2.0000      -0.856190       -23.2981 
  77   2.0000      -0.852994       -23.2112 
  78   2.0000      -0.850603       -23.1461 
  79   2.0000      -0.846793       -23.0424 
  80   2.0000      -0.789867       -21.4934 
  81   2.0000      -0.782354       -21.2889 
  82   2.0000      -0.774309       -21.0700 
  83   2.0000      -0.766476       -20.8569 
  84   2.0000      -0.739816       -20.1314 
  85   2.0000      -0.732202       -19.9242 
  86   2.0000      -0.727032       -19.7836 
  87   2.0000      -0.724359       -19.7108 
  88   2.0000      -0.720656       -19.6101 
  89   2.0000      -0.717814       -19.5327 
  90   2.0000      -0.705296       -19.1921 
  91   2.0000      -0.699281       -19.0284 
  92   2.0000      -0.685289       -18.6477 
  93   2.0000      -0.680885       -18.5278 
  94   2.0000      -0.663228       -18.0474 
  95   2.0000      -0.652585       -17.7577 
  96   2.0000      -0.640604       -17.4317 
  97   2.0000      -0.636782       -17.3277 
  98   2.0000      -0.635095       -17.2818 
  99   2.0000      -0.620273       -16.8785 
 100   2.0000      -0.613709       -16.6999 
 101   2.0000      -0.600599       -16.3431 
 102   2.0000      -0.589864       -16.0510 
 103   2.0000      -0.576062       -15.6754 
 104   2.0000      -0.574082       -15.6216 
 105   2.0000      -0.571581       -15.5535 
 106   2.0000      -0.565494       -15.3879 
 107   2.0000      -0.564601       -15.3636 
 108   2.0000      -0.561206       -15.2712 
 109   2.0000      -0.557154       -15.1609 
 110   2.0000      -0.554543       -15.0899 
 111   2.0000      -0.552693       -15.0395 
 112   2.0000      -0.551409       -15.0046 
 113   2.0000      -0.548887       -14.9360 
 114   2.0000      -0.542085       -14.7509 
 115   2.0000      -0.540825       -14.7166 
 116   2.0000      -0.536183       -14.5903 
 117   2.0000      -0.534294       -14.5389 
 118   2.0000      -0.530127       -14.4255 
 119   2.0000      -0.527774       -14.3615 
 120   2.0000      -0.527066       -14.3422 
 121   2.0000      -0.523499       -14.2451 
 122   2.0000      -0.521823       -14.1995 
 123   2.0000      -0.515735       -14.0339 
 124   2.0000      -0.508739       -13.8435 
 125   2.0000      -0.492625       -13.4050 
 126   2.0000      -0.488403       -13.2901 
 127   2.0000      -0.474977       -12.9248 
 128   2.0000      -0.474189       -12.9033 
 129   2.0000      -0.471969       -12.8429 
 130   2.0000      -0.469482       -12.7752 
 131   2.0000      -0.467942       -12.7334 
 132   2.0000      -0.454302       -12.3622 
 133   2.0000      -0.453823       -12.3492 
 134   2.0000      -0.450871       -12.2688 
 135   2.0000      -0.447892       -12.1878 
 136   2.0000      -0.445620       -12.1259 
 137   2.0000      -0.443673       -12.0730 
 138   2.0000      -0.443423       -12.0662 
 139   2.0000      -0.438473       -11.9315 
 140   2.0000      -0.422885       -11.5073 
 141   2.0000      -0.421061       -11.4577 
 142   2.0000      -0.408248       -11.1090 
 143   2.0000      -0.406362       -11.0577 
 144   2.0000      -0.400427       -10.8962 
 145   2.0000      -0.393054       -10.6955 
 146   2.0000      -0.387648       -10.5484 
 147   2.0000      -0.375019       -10.2048 
 148   2.0000      -0.373171       -10.1545 
 149   2.0000      -0.370667       -10.0864 
 150   2.0000      -0.362120        -9.8538 
 151   2.0000      -0.357757        -9.7351 
 152   2.0000      -0.350186        -9.5290 
 153   2.0000      -0.344916        -9.3857 
 154   2.0000      -0.340467        -9.2646 
 155   2.0000      -0.338958        -9.2235 
 156   2.0000      -0.313826        -8.5396 
 157   2.0000      -0.307865        -8.3774 
 158   2.0000      -0.300791        -8.1849 
 159   2.0000      -0.290944        -7.9170 
 160   0.0000      -0.053992        -1.4692 
 161   0.0000      -0.020967        -0.5705 
 162   0.0000       0.008151         0.2218 
 163   0.0000       0.019173         0.5217 
 164   0.0000       0.026998         0.7346 
 165   0.0000       0.040316         1.0971 
 166   0.0000       0.047046         1.2802 
 167   0.0000       0.049386         1.3439 
 168   0.0000       0.065768         1.7896 
 169   0.0000       0.066846         1.8190 
 170   0.0000       0.072033         1.9601 
 171   0.0000       0.079491         2.1630 
 172   0.0000       0.086888         2.3643 
 173   0.0000       0.090445         2.4611 
 174   0.0000       0.098954         2.6927 
 175   0.0000       0.105463         2.8698 
 176   0.0000       0.115922         3.1544 
 177   0.0000       0.116845         3.1795 
 178   0.0000       0.122406         3.3308 
 179   0.0000       0.125681         3.4200 
 180   0.0000       0.127392         3.4665 
 181   0.0000       0.133371         3.6292 
 182   0.0000       0.134325         3.6552 
 183   0.0000       0.139308         3.7908 
 184   0.0000       0.140277         3.8171 
 185   0.0000       0.145495         3.9591 
 186   0.0000       0.148000         4.0273 
 187   0.0000       0.154685         4.2092 
 188   0.0000       0.157771         4.2932 
 189   0.0000       0.160653         4.3716 
 190   0.0000       0.164862         4.4861 
 191   0.0000       0.167163         4.5487 
 192   0.0000       0.170578         4.6417 
 193   0.0000       0.175510         4.7759 
 194   0.0000       0.177413         4.8276 
 195   0.0000       0.178939         4.8692 
 196   0.0000       0.186308         5.0697 
 197   0.0000       0.187159         5.0929 
 198   0.0000       0.191534         5.2119 
 199   0.0000       0.196689         5.3522 
 200   0.0000       0.199060         5.4167 
 201   0.0000       0.203130         5.5274 
 202   0.0000       0.204373         5.5613 
 203   0.0000       0.204982         5.5778 
 204   0.0000       0.208568         5.6754 
 205   0.0000       0.209092         5.6897 
 206   0.0000       0.214369         5.8333 
 207   0.0000       0.219844         5.9823 
 208   0.0000       0.220840         6.0094 
 209   0.0000       0.229572         6.2470 
 210   0.0000       0.232261         6.3202 
 211   0.0000       0.234908         6.3922 
 212   0.0000       0.240083         6.5330 
 213   0.0000       0.242441         6.5971 
 214   0.0000       0.244862         6.6630 
 215   0.0000       0.249498         6.7892 
 216   0.0000       0.254037         6.9127 
 217   0.0000       0.256858         6.9895 
 218   0.0000       0.263035         7.1575 
 219   0.0000       0.266050         7.2396 
 220   0.0000       0.268820         7.3150 
 221   0.0000       0.270333         7.3561 
 222   0.0000       0.271742         7.3945 
 223   0.0000       0.274148         7.4599 
 224   0.0000       0.275068         7.4850 
 225   0.0000       0.277759         7.5582 
 226   0.0000       0.278670         7.5830 
 227   0.0000       0.284598         7.7443 
 228   0.0000       0.286874         7.8062 
 229   0.0000       0.287818         7.8319 
 230   0.0000       0.290193         7.8965 
 231   0.0000       0.291341         7.9278 
 232   0.0000       0.291899         7.9430 
 233   0.0000       0.294086         8.0025 
 234   0.0000       0.294894         8.0245 
 235   0.0000       0.296218         8.0605 
 236   0.0000       0.300675         8.1818 
 237   0.0000       0.302292         8.2258 
 238   0.0000       0.305009         8.2997 
 239   0.0000       0.306049         8.3280 
 240   0.0000       0.310094         8.4381 
 241   0.0000       0.311833         8.4854 
 242   0.0000       0.316150         8.6029 
 243   0.0000       0.316655         8.6166 
 244   0.0000       0.320349         8.7171 
 245   0.0000       0.320969         8.7340 
 246   0.0000       0.324268         8.8238 
 247   0.0000       0.325394         8.8544 
 248   0.0000       0.328046         8.9266 
 249   0.0000       0.329683         8.9711 
 250   0.0000       0.331557         9.0221 
 251   0.0000       0.335522         9.1300 
 252   0.0000       0.337215         9.1761 
 253   0.0000       0.338709         9.2167 
 254   0.0000       0.340266         9.2591 
 255   0.0000       0.345123         9.3913 
 256   0.0000       0.345596         9.4041 
 257   0.0000       0.347166         9.4469 
 258   0.0000       0.351015         9.5516 
 259   0.0000       0.356168         9.6918 
 260   0.0000       0.356976         9.7138 
 261   0.0000       0.359914         9.7938 
 262   0.0000       0.362443         9.8626 
 263   0.0000       0.366175         9.9641 
 264   0.0000       0.368096        10.0164 
 265   0.0000       0.371873        10.1192 
 266   0.0000       0.374560        10.1923 
 267   0.0000       0.377111        10.2617 
 268   0.0000       0.378585        10.3018 
 269   0.0000       0.381846        10.3906 
 270   0.0000       0.385882        10.5004 
 271   0.0000       0.387998        10.5580 
 272   0.0000       0.389680        10.6037 
 273   0.0000       0.390868        10.6361 
 274   0.0000       0.391548        10.6546 
 275   0.0000       0.393922        10.7191 
 276   0.0000       0.396860        10.7991 
 277   0.0000       0.400747        10.9049 
 278   0.0000       0.402937        10.9645 
 279   0.0000       0.403109        10.9692 
 280   0.0000       0.406139        11.0516 
 281   0.0000       0.408597        11.1185 
 282   0.0000       0.411338        11.1931 
 283   0.0000       0.413061        11.2400 
 284   0.0000       0.416235        11.3263 
 285   0.0000       0.420233        11.4351 
 286   0.0000       0.420811        11.4508 
 287   0.0000       0.424997        11.5648 
 288   0.0000       0.428325        11.6553 
 289   0.0000       0.431401        11.7390 
 290   0.0000       0.433268        11.7898 
 291   0.0000       0.434890        11.8339 
 292   0.0000       0.435320        11.8457 
 293   0.0000       0.438441        11.9306 
 294   0.0000       0.440082        11.9753 
 295   0.0000       0.442087        12.0298 
 296   0.0000       0.443238        12.0611 
 297   0.0000       0.446798        12.1580 
 298   0.0000       0.447176        12.1683 
 299   0.0000       0.451605        12.2888 
 300   0.0000       0.453872        12.3505 
 301   0.0000       0.455366        12.3911 
 302   0.0000       0.459232        12.4963 
 303   0.0000       0.460253        12.5241 
 304   0.0000       0.462860        12.5951 
 305   0.0000       0.463749        12.6193 
 306   0.0000       0.464391        12.6367 
 307   0.0000       0.469209        12.7678 
 308   0.0000       0.469768        12.7830 
 309   0.0000       0.472142        12.8476 
 310   0.0000       0.472408        12.8549 
 311   0.0000       0.474639        12.9156 
 312   0.0000       0.476486        12.9658 
 313   0.0000       0.481191        13.0939 
 314   0.0000       0.481392        13.0993 
 315   0.0000       0.484326        13.1792 
 316   0.0000       0.485429        13.2092 
 317   0.0000       0.486505        13.2385 
 318   0.0000       0.492318        13.3967 
 319   0.0000       0.494610        13.4590 
 320   0.0000       0.495501        13.4833 
 321   0.0000       0.496885        13.5209 
 322   0.0000       0.499788        13.5999 
 323   0.0000       0.501568        13.6484 
 324   0.0000       0.503279        13.6949 
 325   0.0000       0.506378        13.7792 
 326   0.0000       0.511392        13.9157 
 327   0.0000       0.513089        13.9619 
 328   0.0000       0.514581        14.0025 
 329   0.0000       0.517961        14.0944 
 330   0.0000       0.520392        14.1606 
 331   0.0000       0.522589        14.2204 
 332   0.0000       0.525715        14.3054 
 333   0.0000       0.526686        14.3318 
 334   0.0000       0.529465        14.4075 
 335   0.0000       0.531780        14.4705 
 336   0.0000       0.532879        14.5004 
 337   0.0000       0.536792        14.6069 
 338   0.0000       0.538752        14.6602 
 339   0.0000       0.541853        14.7446 
 340   0.0000       0.542876        14.7724 
 341   0.0000       0.546141        14.8613 
 342   0.0000       0.549926        14.9642 
 343   0.0000       0.551245        15.0001 
 344   0.0000       0.552554        15.0358 
 345   0.0000       0.555463        15.1149 
 346   0.0000       0.558485        15.1971 
 347   0.0000       0.564514        15.3612 
 348   0.0000       0.567188        15.4340 
 349   0.0000       0.568971        15.4825 
 350   0.0000       0.571016        15.5381 
 351   0.0000       0.573534        15.6066 
 352   0.0000       0.574082        15.6216 
 353   0.0000       0.576822        15.6961 
 354   0.0000       0.578535        15.7427 
 355   0.0000       0.579467        15.7681 
 356   0.0000       0.581646        15.8274 
 357   0.0000       0.583527        15.8786 
 358   0.0000       0.587021        15.9737 
 359   0.0000       0.589696        16.0465 
 360   0.0000       0.594573        16.1791 
 361   0.0000       0.594848        16.1866 
 362   0.0000       0.598972        16.2988 
 363   0.0000       0.604694        16.4546 
 364   0.0000       0.607371        16.5274 
 365   0.0000       0.609579        16.5875 
 366   0.0000       0.610489        16.6122 
 367   0.0000       0.613191        16.6858 
 368   0.0000       0.616741        16.7824 
 369   0.0000       0.622544        16.9403 
 370   0.0000       0.626667        17.0525 
 371   0.0000       0.630808        17.1652 
 372   0.0000       0.634229        17.2583 
 373   0.0000       0.636708        17.3257 
 374   0.0000       0.637375        17.3439 
 375   0.0000       0.640543        17.4301 
 376   0.0000       0.648181        17.6379 
 377   0.0000       0.649278        17.6678 
 378   0.0000       0.653393        17.7797 
 379   0.0000       0.661121        17.9900 
 380   0.0000       0.663419        18.0526 
 381   0.0000       0.664685        18.0870 
 382   0.0000       0.667087        18.1524 
 383   0.0000       0.670673        18.2499 
 384   0.0000       0.673366        18.3232 
 385   0.0000       0.678282        18.4570 
 386   0.0000       0.679816        18.4987 
 387   0.0000       0.681401        18.5419 
 388   0.0000       0.685795        18.6614 
 389   0.0000       0.687862        18.7177 
 390   0.0000       0.690359        18.7856 
 391   0.0000       0.695100        18.9146 
 392   0.0000       0.698329        19.0025 
 393   0.0000       0.701237        19.0816 
 394   0.0000       0.703135        19.1333 
 395   0.0000       0.705593        19.2002 
 396   0.0000       0.715069        19.4580 
 397   0.0000       0.716540        19.4981 
 398   0.0000       0.716671        19.5016 
 399   0.0000       0.719392        19.5757 
 400   0.0000       0.721903        19.6440 
 401   0.0000       0.723590        19.6899 
 402   0.0000       0.728727        19.8297 
 403   0.0000       0.729836        19.8598 
 404   0.0000       0.731841        19.9144 
 405   0.0000       0.734427        19.9848 
 406   0.0000       0.737162        20.0592 
 407   0.0000       0.738787        20.1034 
 408   0.0000       0.740801        20.1582 
 409   0.0000       0.743601        20.2344 
 410   0.0000       0.746260        20.3068 
 411   0.0000       0.750431        20.4203 
 412   0.0000       0.751519        20.4499 
 413   0.0000       0.755346        20.5540 
 414   0.0000       0.758334        20.6353 
 415   0.0000       0.760767        20.7015 
 416   0.0000       0.763250        20.7691 
 417   0.0000       0.764134        20.7931 
 418   0.0000       0.770940        20.9783 
 419   0.0000       0.773997        21.0615 
 420   0.0000       0.775385        21.0993 
 421   0.0000       0.778514        21.1844 
 422   0.0000       0.781928        21.2774 
 423   0.0000       0.785185        21.3660 
 424   0.0000       0.786945        21.4139 
 425   0.0000       0.790786        21.5184 
 426   0.0000       0.791131        21.5278 
 427   0.0000       0.797442        21.6995 
 428   0.0000       0.800029        21.7699 
 429   0.0000       0.801139        21.8001 
 430   0.0000       0.803311        21.8592 
 431   0.0000       0.804090        21.8804 
 432   0.0000       0.810177        22.0460 
 433   0.0000       0.812616        22.1124 
 434   0.0000       0.814680        22.1686 
 435   0.0000       0.821842        22.3635 
 436   0.0000       0.823019        22.3955 
 437   0.0000       0.825189        22.4545 
 438   0.0000       0.826065        22.4784 
 439   0.0000       0.827844        22.5268 
 440   0.0000       0.832033        22.6408 
 441   0.0000       0.835737        22.7416 
 442   0.0000       0.838127        22.8066 
 443   0.0000       0.839520        22.8445 
 444   0.0000       0.843591        22.9553 
 445   0.0000       0.848122        23.0786 
 446   0.0000       0.851417        23.1682 
 447   0.0000       0.859594        23.3907 
 448   0.0000       0.862716        23.4757 
 449   0.0000       0.865278        23.5454 
 450   0.0000       0.866648        23.5827 
 451   0.0000       0.872116        23.7315 
 452   0.0000       0.875076        23.8120 
 453   0.0000       0.877003        23.8645 
 454   0.0000       0.884735        24.0749 
 455   0.0000       0.886385        24.1198 
 456   0.0000       0.891012        24.2457 
 457   0.0000       0.893226        24.3059 
 458   0.0000       0.896853        24.4046 
 459   0.0000       0.898437        24.4477 
 460   0.0000       0.902159        24.5490 
 461   0.0000       0.905451        24.6386 
 462   0.0000       0.906416        24.6648 
 463   0.0000       0.910794        24.7840 
 464   0.0000       0.914808        24.8932 
 465   0.0000       0.917444        24.9649 
 466   0.0000       0.919824        25.0297 
 467   0.0000       0.920564        25.0498 
 468   0.0000       0.928278        25.2597 
 469   0.0000       0.931884        25.3579 
 470   0.0000       0.934225        25.4215 
 471   0.0000       0.935360        25.4524 
 472   0.0000       0.936154        25.4740 
 473   0.0000       0.942097        25.6358 
 474   0.0000       0.944350        25.6971 
 475   0.0000       0.948225        25.8025 
 476   0.0000       0.951533        25.8925 
 477   0.0000       0.955414        25.9981 
 478   0.0000       0.960419        26.1343 
 479   0.0000       0.963230        26.2108 
 480   0.0000       0.966021        26.2868 
 481   0.0000       0.970829        26.4176 
 482   0.0000       0.976447        26.5705 
 483   0.0000       0.980699        26.6862 
 484   0.0000       0.983439        26.7607 
 485   0.0000       0.983594        26.7649 
 486   0.0000       0.990754        26.9598 
 487   0.0000       0.994438        27.0600 
 488   0.0000       0.998240        27.1635 
 489   0.0000       1.002768        27.2867 
 490   0.0000       1.003680        27.3115 
 491   0.0000       1.009069        27.4582 
 492   0.0000       1.011305        27.5190 
 493   0.0000       1.015497        27.6331 
 494   0.0000       1.017570        27.6895 
 495   0.0000       1.023684        27.8558 
 496   0.0000       1.027027        27.9468 
 497   0.0000       1.030582        28.0436 
 498   0.0000       1.033109        28.1123 
 499   0.0000       1.044161        28.4131 
 500   0.0000       1.049242        28.5513 
 501   0.0000       1.053570        28.6691 
 502   0.0000       1.061210        28.8770 
 503   0.0000       1.063202        28.9312 
 504   0.0000       1.065869        29.0038 
 505   0.0000       1.069498        29.1025 
 506   0.0000       1.073375        29.2080 
 507   0.0000       1.075156        29.2565 
 508   0.0000       1.081887        29.4396 
 509   0.0000       1.084826        29.5196 
 510   0.0000       1.087997        29.6059 
 511   0.0000       1.089239        29.6397 
 512   0.0000       1.099984        29.9321 
 513   0.0000       1.100084        29.9348 
 514   0.0000       1.104195        30.0467 
 515   0.0000       1.111125        30.2352 
 516   0.0000       1.113994        30.3133 
 517   0.0000       1.114952        30.3394 
 518   0.0000       1.124764        30.6064 
 519   0.0000       1.129020        30.7222 
 520   0.0000       1.135739        30.9050 
 521   0.0000       1.137171        30.9440 
 522   0.0000       1.145120        31.1603 
 523   0.0000       1.146438        31.1962 
 524   0.0000       1.155678        31.4476 
 525   0.0000       1.159144        31.5419 
 526   0.0000       1.161636        31.6097 
 527   0.0000       1.169292        31.8181 
 528   0.0000       1.172959        31.9178 
 529   0.0000       1.175203        31.9789 
 530   0.0000       1.180777        32.1306 
 531   0.0000       1.185689        32.2642 
 532   0.0000       1.191334        32.4178 
 533   0.0000       1.197255        32.5790 
 534   0.0000       1.203401        32.7462 
 535   0.0000       1.206994        32.8440 
 536   0.0000       1.212062        32.9819 
 537   0.0000       1.214310        33.0430 
 538   0.0000       1.218288        33.1513 
 539   0.0000       1.222263        33.2595 
 540   0.0000       1.226375        33.3714 
 541   0.0000       1.228399        33.4264 
 542   0.0000       1.233639        33.5690 
 543   0.0000       1.235918        33.6310 
 544   0.0000       1.237606        33.6770 
 545   0.0000       1.242781        33.8178 
 546   0.0000       1.254431        34.1348 
 547   0.0000       1.257849        34.2278 
 548   0.0000       1.264771        34.4162 
 549   0.0000       1.266914        34.4745 
 550   0.0000       1.273772        34.6611 
 551   0.0000       1.278718        34.7957 
 552   0.0000       1.279395        34.8141 
 553   0.0000       1.286835        35.0166 
 554   0.0000       1.290848        35.1258 
 555   0.0000       1.294516        35.2256 
 556   0.0000       1.302570        35.4447 
[...]
 284   9.210     134.6   0.021257   0.020562   6.081625   6.949183     0.06 (  80-> 104)    0.05 (  97-> 108)    0.03 (  87-> 118)
 285   9.211     134.6   0.012796   0.010579   3.402952   3.293258     0.04 (  97-> 108)    0.03 (  95-> 134)    0.03 (  58-> 100)
 286   9.219     134.5   0.004128   0.004185  -23.939238  -25.029932     0.04 (  96-> 137)    0.03 (  88-> 110)    0.03 (  99-> 119)
 287   9.224     134.4   0.001363   0.001451   3.186338   3.302738     0.04 (  82-> 103)    0.03 (  83-> 105)    0.03 (  80-> 106)
 288   9.237     134.2   0.003149   0.002674   7.149586   6.775989     0.07 (  73-> 109)    0.04 (  97-> 110)    0.04 (  73-> 107)
 289   9.247     134.1   0.002934   0.002545   2.458629   1.125432     0.14 (  80-> 106)    0.04 (  97-> 108)    0.03 (  71-> 106)
 290   9.257     133.9   0.004045   0.003195  12.044425  11.618203     0.06 (  99-> 141)    0.05 (  98-> 141)    0.04 (  86-> 115)
 291   9.270     133.8   0.017462   0.015222  -9.722301  -8.999474     0.10 (  97-> 110)    0.05 (  97-> 108)    0.02 (  83-> 105)
 292   9.274     133.7   0.033889   0.027193  -18.725150  -14.651326     0.06 (  70-> 104)    0.05 (  80-> 104)    0.03 (  93-> 126)
 293   9.276     133.7   0.012093   0.009739  12.232246  12.377907     0.04 (  69-> 107)    0.02 (  67-> 107)    0.02 (  69-> 105)
 294   9.282     133.6   0.020160   0.016966  30.461463  28.124591     0.04 (  69-> 107)    0.04 (  67-> 107)    0.03 (  95-> 138)
 295   9.285     133.5   0.019323   0.014814  20.070789  17.342643     0.05 (  80-> 106)    0.04 (  96-> 138)    0.04 (  95-> 138)
 296   9.294     133.4   0.004152   0.003664  -19.248636  -19.448814     0.03 (  65-> 100)    0.02 (  75-> 101)    0.02 (  65-> 103)
 297   9.305     133.2   0.011184   0.010528  -65.950469  -66.386563     0.03 (  97-> 145)    0.02 (  97-> 136)    0.02 (  82-> 109)
 298   9.314     133.1   0.060298   0.051673  -115.476346  -106.784783     0.02 (  99-> 112)    0.02 (  85-> 111)    0.02 (  89-> 105)
 299   9.324     133.0   0.077033   0.070001  42.627139  38.558627     0.05 (  97-> 110)    0.02 (  98-> 113)    0.02 (  82-> 109)
 300   9.330     132.9   0.005287   0.004526  -9.120119  -9.107660     0.16 (  97-> 110)    0.03 (  98-> 110)    0.02 (  65-> 100)
 301   9.339     132.8   0.005802   0.004653   5.003835   2.422330     0.07 (  96-> 111)    0.06 (  83-> 109)    0.04 (  83-> 104)
 302   9.345     132.7   0.015612   0.012677  42.315556  39.475020     0.04 (  65-> 100)    0.04 (  71-> 103)    0.03 (  98-> 113)
 303   9.356     132.5   0.022931   0.021882  26.400825  26.020910     0.06 (  97-> 110)    0.03 (  98-> 110)    0.03 (  97-> 145)
 304   9.362     132.4   0.008556   0.007615  -15.047414  -13.243568     0.06 (  96-> 111)    0.05 (  82-> 103)    0.03 (  87-> 103)
 305   9.364     132.4   0.001563   0.001477   1.468762   1.334164     0.24 (  96-> 111)    0.03 (  96-> 112)    0.02 (  97-> 110)
 306   9.371     132.3   0.008267   0.007977  -4.492843  -4.400543     0.05 (  97-> 110)    0.03 (  97-> 145)    0.03 (  83-> 109)
 307   9.380     132.2   0.002665   0.002267  12.362131  11.277549     0.11 (  82-> 103)    0.07 (  87-> 103)    0.06 (  82-> 105)
 308   9.387     132.1   0.025858   0.020277   0.057316  -0.020928     0.05 (  80-> 108)    0.04 (  87-> 108)    0.04 (  91-> 108)
 309   9.401     131.9   0.045873   0.035922  -95.091550  -84.910703     0.03 (  73-> 109)    0.03 (  50-> 100)    0.03 (  67-> 100)
 310   9.403     131.9   0.003359   0.003452  -0.823207  -0.912723     0.08 (  98-> 113)    0.04 (  99-> 113)    0.02 (  82-> 109)
 311   9.406     131.8   0.008105   0.006975  -18.304547  -15.254774     0.06 (  98-> 113)    0.04 (  99-> 113)    0.03 (  99-> 127)
 312   9.421     131.6   0.151959   0.123205  -5.257324  -5.154178     0.08 (  70-> 104)    0.03 (  83-> 109)    0.02 (  83-> 104)
 313   9.426     131.5   0.008624   0.007433  -14.893921  -12.844708     0.03 (  96-> 137)    0.02 (  82-> 103)    0.02 (  83-> 109)
 314   9.440     131.3   0.036834   0.032386  -13.598271  -12.723892     0.02 (  95-> 107)    0.01 (  73-> 107)    0.01 (  83-> 107)
 315   9.446     131.3   0.006788   0.004852  -27.471730  -23.612146     0.08 (  96-> 137)    0.04 (  62-> 100)    0.02 (  95-> 107)
 316   9.448     131.2   0.012664   0.009748  -4.194625  -4.113637     0.06 (  95-> 107)    0.02 (  94-> 121)    0.01 (  92-> 109)
 317   9.461     131.0   0.004553   0.004001   5.141699   5.545649     0.24 (  95-> 107)    0.04 (  95-> 105)    0.04 (  96-> 137)
 318   9.462     131.0   0.006999   0.006639  23.702163  22.873398     0.12 (  95-> 107)    0.03 (  97-> 113)    0.03 (  97-> 116)
 319   9.463     131.0   0.038276   0.031486   5.019247   1.661857     0.10 (  95-> 107)    0.02 (  84-> 117)    0.02 (  95-> 105)
 320   9.469     130.9   0.079944   0.065958  92.661640  83.664683     0.03 (  70-> 104)    0.02 (  69-> 100)    0.02 (  78-> 100)
 321   9.475     130.9   0.014569   0.011383  -3.414806  -2.988047     0.06 (  95-> 107)    0.02 (  57-> 100)    0.02 (  94-> 107)
 322   9.480     130.8   0.026819   0.024508  14.454717  13.967968     0.04 (  96-> 137)    0.02 (  71-> 106)    0.02 (  66-> 106)
 323   9.484     130.7   0.003959   0.003785   3.626734   4.099836     0.08 (  65-> 106)    0.04 (  71-> 106)    0.03 (  62-> 100)
 324   9.490     130.7   0.001637   0.001242  -4.366537  -3.356027     0.03 (  62-> 100)    0.03 (  71-> 106)    0.03 (  66-> 106)
 325   9.498     130.5   0.020692   0.017146  25.398621  23.068369     0.04 (  97-> 113)    0.03 (  62-> 100)    0.03 (  97-> 110)
 326   9.502     130.5   0.025735   0.021249   8.858083   8.644567     0.04 (  95-> 109)    0.02 (  71-> 106)    0.02 (  86-> 111)
 327   9.506     130.4   0.015942   0.013011  -23.984439  -21.916400     0.17 (  95-> 109)    0.06 (  95-> 111)    0.02 (  92-> 109)
 328   9.512     130.3   0.010573   0.007907  -11.864651  -10.207350     0.07 (  65-> 106)    0.02 (  93-> 121)    0.01 (  94-> 106)
 329   9.527     130.1   0.023929   0.020521   6.834093   5.183125     0.02 (  82-> 109)    0.02 (  55-> 100)    0.02 (  93-> 107)
 330   9.537     130.0   0.007003   0.005581  -6.869785  -6.127498     0.16 (  95-> 109)    0.06 (  95-> 111)    0.04 (  99-> 115)
 331   9.548     129.9   0.014121   0.011234  -11.387487  -10.283818     0.04 (  77-> 101)    0.03 (  95-> 109)    0.02 (  99-> 119)
 332   9.560     129.7   0.067537   0.056485  -51.197560  -45.613668     0.02 (  97-> 141)    0.02 (  96-> 140)    0.01 (  77-> 108)
 333   9.573     129.5   0.031339   0.029034  25.551498  24.662792     0.03 (  83-> 107)    0.02 (  91-> 112)    0.02 (  62-> 100)
 334   9.576     129.5   0.016697   0.014249  -50.944474  -46.800028     0.04 (  94-> 108)    0.04 (  98-> 113)    0.03 (  96-> 112)
 335   9.579     129.4   0.005514   0.004998  10.656924   9.111788     0.04 (  96-> 112)    0.04 (  99-> 115)    0.03 (  97-> 141)
 336   9.586     129.3   0.001278   0.000916  12.702469  10.594268     0.05 (  99-> 115)    0.03 (  97-> 141)    0.02 (  83-> 107)
 337   9.596     129.2   0.035043   0.029518  -25.897007  -22.526887     0.07 (  84-> 117)    0.03 (  96-> 112)    0.02 (  93-> 119)
 338   9.597     129.2   0.003910   0.003072   1.951963   1.770449     0.05 (  96-> 112)    0.02 (  93-> 107)    0.02 (  94-> 111)
 339   9.602     129.1   0.008072   0.007188  -19.452744  -18.031829     0.07 (  93-> 107)    0.04 (  84-> 117)    0.02 (  91-> 107)
 340   9.610     129.0   0.007663   0.007135  -16.875401  -16.383636     0.07 (  93-> 107)    0.04 (  67-> 100)    0.03 (  78-> 100)
 341   9.618     128.9   0.024562   0.020483  -18.315953  -16.186094     0.04 (  67-> 100)    0.04 (  99-> 115)    0.03 (  69-> 100)
 342   9.620     128.9   0.004902   0.003425  -1.227051  -0.719378     0.05 (  97-> 141)    0.03 (  99-> 115)    0.02 (  98-> 118)
 343   9.626     128.8   0.011421   0.009270  -14.913587  -11.994460     0.07 (  97-> 113)    0.05 (  99-> 122)    0.03 (  96-> 140)
 344   9.634     128.7   0.007278   0.006770  -15.579002  -14.071364     0.04 (  97-> 113)    0.03 (  94-> 123)    0.02 (  97-> 141)
 345   9.651     128.5   0.018288   0.015520  -0.745331   0.428497     0.15 (  97-> 113)    0.03 (  99-> 115)    0.02 (  98-> 115)
 346   9.656     128.4   0.008256   0.006395  -12.610999  -12.615115     0.07 (  94-> 108)    0.06 (  97-> 113)    0.04 (  89-> 108)
 347   9.659     128.4   0.011145   0.008733   6.901899   6.107022     0.04 (  96-> 112)    0.02 (  98-> 117)    0.02 (  70-> 103)
 348   9.668     128.2   0.001885   0.001781  11.230208  10.775353     0.07 (  87-> 107)    0.05 (  93-> 111)    0.04 (  93-> 109)
 349   9.674     128.2   0.002171   0.001729  -7.875438  -7.012284     0.07 (  97-> 141)    0.06 (  99-> 115)    0.04 (  98-> 115)
 350   9.682     128.1   0.000294   0.000281   3.476389   3.432679     0.09 (  97-> 141)    0.04 (  99-> 122)    0.02 (  99-> 115)
 351   9.697     127.9   0.039795   0.034080  -10.324745  -9.299209     0.05 (  68-> 100)    0.04 (  88-> 116)    0.02 (  77-> 101)
 352   9.701     127.8   0.009643   0.007876  -9.594738  -8.002571     0.07 (  70-> 103)    0.04 (  68-> 100)    0.03 (  80-> 113)
 353   9.706     127.7   0.014577   0.013212  22.582894  21.989430     0.03 (  97-> 113)    0.03 (  94-> 108)    0.02 (  94-> 124)
 354   9.719     127.6   0.016290   0.014460  27.284044  25.362967     0.05 (  86-> 103)    0.03 (  70-> 103)    0.02 (  74-> 100)
 355   9.726     127.5   0.010396   0.008430  -13.963121  -12.598815     0.03 (  94-> 110)    0.03 (  80-> 110)    0.03 (  70-> 103)
 356   9.729     127.4   0.000673   0.000774  -0.576938  -0.733494     0.07 (  91-> 114)    0.06 (  90-> 114)    0.03 (  93-> 114)
 357   9.732     127.4   0.001388   0.001322   8.141513   6.538334     0.08 (  95-> 140)    0.04 (  95-> 127)    0.04 (  95-> 138)
 358   9.742     127.3   0.003393   0.003380  -2.972302  -2.915202     0.04 (  80-> 110)    0.03 (  94-> 110)    0.03 (  91-> 106)
 359   9.752     127.1   0.012928   0.011305  -5.125310  -5.008698     0.04 (  98-> 117)    0.03 (  84-> 118)    0.03 (  98-> 118)
 360   9.754     127.1   0.000754   0.000511  -8.466998  -8.006857     0.04 (  99-> 146)    0.03 (  92-> 107)    0.03 (  92-> 137)
 361   9.758     127.1   0.025421   0.022682  -10.221399  -12.157468     0.03 (  95-> 140)    0.02 (  70-> 101)    0.02 (  72-> 105)
 362   9.761     127.0   0.012164   0.010437  11.323743  11.758450     0.03 (  72-> 101)    0.03 (  98-> 148)    0.02 (  92-> 107)
 363   9.762     127.0   0.016079   0.013398  25.384006  22.205765     0.05 (  92-> 107)    0.04 (  99-> 148)    0.02 (  94-> 107)
 364   9.771     126.9   0.004777   0.003723  11.616750  10.502843     0.02 (  80-> 113)    0.02 (  94-> 110)    0.02 (  81-> 105)
 365   9.776     126.8   0.005882   0.005563   4.454072   4.942121     0.04 (  99-> 148)    0.03 (  69-> 100)    0.02 (  84-> 103)
 366   9.776     126.8   0.001558   0.001793   1.483812   0.803371     0.07 (  96-> 112)    0.03 (  98-> 117)    0.03 (  98-> 118)
 367   9.781     126.8   0.008695   0.007349  -1.737702  -1.293559     0.06 (  95-> 137)    0.03 (  99-> 146)    0.02 (  92-> 137)
 368   9.784     126.7   0.017749   0.013682  -23.434553  -20.767387     0.06 (  92-> 107)    0.04 (  96-> 143)    0.02 (  92-> 106)
 369   9.793     126.6   0.003982   0.003504  -1.704440  -1.116407     0.08 (  92-> 107)    0.05 (  96-> 112)    0.03 (  95-> 137)
 370   9.797     126.6   0.011597   0.009413   7.228000   6.467404     0.03 (  70-> 105)    0.03 (  92-> 107)    0.02 (  72-> 101)
 371   9.804     126.5   0.001576   0.000948  -1.915775  -0.595356     0.06 (  92-> 107)    0.02 (  86-> 103)    0.02 (  90-> 106)
 372   9.809     126.4   0.021005   0.018950  -10.416359  -10.041262     0.05 (  85-> 103)    0.02 (  96-> 112)    0.02 (  93-> 122)
 373   9.816     126.3   0.011616   0.010590  -9.615672  -7.256661     0.05 (  94-> 110)    0.03 (  93-> 127)    0.02 (  89-> 110)
 374   9.826     126.2   0.003876   0.002577  -4.409981  -4.116197     0.09 (  68-> 100)    0.02 (  61-> 101)    0.02 (  61-> 102)
 375   9.829     126.1   0.001549   0.001642   1.677093   1.697666     0.06 (  90-> 106)    0.04 (  94-> 106)    0.04 (  89-> 106)
 376   9.831     126.1   0.006441   0.005166  -3.668491  -4.607502     0.04 (  92-> 107)    0.03 (  73-> 101)    0.02 (  85-> 103)
 377   9.841     126.0   0.001669   0.001307  -5.263150  -4.912427     0.05 (  90-> 106)    0.05 (  91-> 110)    0.04 (  87-> 110)
 378   9.853     125.8   0.011632   0.008830  19.371998  15.480588     0.05 (  95-> 116)    0.02 (  96-> 143)    0.02 (  74-> 100)
 379   9.861     125.7   0.026578   0.026287  23.428736  22.606589     0.03 (  83-> 124)    0.02 (  83-> 120)    0.02 (  95-> 116)
 380   9.863     125.7   0.002902   0.002604  -5.538777  -5.297307     0.04 (  97-> 147)    0.04 (  97-> 118)    0.02 (  97-> 148)
 381   9.865     125.7   0.008721   0.007585  -1.788710   0.941672     0.04 (  96-> 143)    0.02 (  95-> 140)    0.01 (  95-> 143)
 382   9.872     125.6   0.009554   0.007226   4.867059   3.852267     0.04 (  95-> 116)    0.03 (  66-> 103)    0.02 (  80-> 108)
 383   9.877     125.5   0.033165   0.030564  -33.326064  -34.244270     0.03 (  93-> 122)    0.03 (  86-> 103)    0.02 (  99-> 151)
 384   9.880     125.5   0.003317   0.002342  -12.112697  -9.509536     0.05 (  77-> 101)    0.03 (  95-> 143)    0.01 (  92-> 137)
 385   9.885     125.4   0.021615   0.018434  25.127176  23.684603     0.02 (  92-> 109)    0.02 (  73-> 100)    0.02 (  99-> 146)
 386   9.893     125.3   0.001985   0.002171   7.783296   8.512843     0.03 (  77-> 101)    0.02 (  78-> 104)    0.02 (  92-> 109)
 387   9.903     125.2   0.042748   0.039473  -45.271755  -43.820017     0.04 (  92-> 109)    0.04 (  86-> 103)    0.03 (  97-> 118)
 388   9.906     125.2   0.001119   0.001076   0.131051   0.204289     0.10 (  78-> 104)    0.04 (  86-> 103)    0.02 (  69-> 100)
 389   9.907     125.1   0.015542   0.014109   3.146174   2.367583     0.07 (  97-> 118)    0.03 (  92-> 109)    0.03 (  97-> 117)
 390   9.911     125.1   0.069851   0.062554  -1.444235  -2.484004     0.02 (  85-> 103)    0.02 (  77-> 101)    0.02 (  88-> 116)
 391   9.919     125.0   0.009957   0.008218  -15.771706  -14.528152     0.04 (  98-> 145)    0.03 (  92-> 109)    0.02 (  94-> 132)
 392   9.929     124.9   0.019040   0.017367  -18.693253  -17.561040     0.03 (  92-> 109)    0.02 (  96-> 144)    0.02 (  69-> 100)
 393   9.931     124.8   0.003602   0.003438   8.523078   8.699993     0.17 (  97-> 117)    0.12 (  97-> 118)    0.03 (  98-> 117)
 394   9.943     124.7   0.011151   0.009162   3.875082   3.364270     0.04 (  96-> 118)    0.03 (  96-> 112)    0.03 (  89-> 113)
 395   9.949     124.6   0.011575   0.008694   5.895711   5.164258     0.04 (  96-> 118)    0.03 (  96-> 112)    0.02 (  69-> 100)
 396   9.959     124.5   0.018989   0.016258  -0.235781   1.654211     0.09 (  95-> 116)    0.04 (  95-> 113)    0.03 (  96-> 143)
 397   9.960     124.5   0.008631   0.006828  32.949038  29.676155     0.02 (  78-> 104)    0.02 (  97-> 148)    0.02 (  97-> 117)
 398   9.964     124.4   0.009626   0.007590   1.474524  -0.788517     0.03 (  83-> 103)    0.02 (  93-> 109)    0.02 (  97-> 117)
 399   9.972     124.3   0.023727   0.021370  14.156299  13.470385     0.04 (  83-> 103)    0.02 (  88-> 116)    0.02 (  55-> 101)
 400   9.980     124.2   0.005924   0.004934  -19.615177  -16.791378     0.06 (  96-> 118)    0.02 (  96-> 114)    0.02 (  88-> 117)
 401   9.982     124.2   0.018215   0.017830  18.787370  17.545628     0.03 (  86-> 114)    0.02 (  83-> 103)    0.02 (  83-> 117)
 402   9.998     124.0   0.003803   0.002822  -7.697715  -6.746409     0.03 (  86-> 114)    0.03 (  84-> 107)    0.02 (  97-> 117)

sTD-DFT done

Total run time:       92.066 sec

           *** ORCA-CIS/TD-DFT FINISHED WITHOUT ERROR ***


-------------------------------------------------------------------------------
                          DFT DISPERSION CORRECTION                            
                                                                               
                              DFTD3 V3.1  Rev 1                                
                              USING zero damping                               
-------------------------------------------------------------------------------
The omegaB97X-D3 functional is recognized. Fit by Chai et al.
Active option DFTDOPT                   ...         3   

molecular C6(AA) [au] = 70827.105735 


            DFT-D V3
 parameters
 s6 scaling factor         :     1.0000 
 rs6 scaling factor        :     1.2810 
 s8 scaling factor         :     1.0000 
 rs8 scaling factor        :     1.0940 
 Damping factor alpha6     :    14.0000 
 Damping factor alpha8     :    16.0000 
 ad hoc parameters k1-k3   :    16.0000     1.3333    -4.0000 

 Edisp/kcal,au: -19.928071844516  -0.031757400553 
 E6   /kcal   :  -9.681295922 
 E8   /kcal   : -10.246775923 
 % E8         :  51.418802596 

-------------------------   ----------------
Dispersion correction           -0.031757401
-------------------------   ----------------


-------------------------   --------------------
FINAL SINGLE POINT ENERGY     -2884.967696993273
-------------------------   --------------------


                            ***************************************
                            *     ORCA property calculations      *
                            ***************************************

                                    ---------------------
                                    Active property flags
                                    ---------------------
   (+) Dipole Moment
   (+) Quadrupole Moment


------------------------------------------------------------------------------
                       ORCA ELECTRIC PROPERTIES CALCULATION
------------------------------------------------------------------------------

Dipole Moment Calculation                       ... on
Quadrupole Moment Calculation                   ... on
Polarizability Calculation                      ... off
GBWName                                         ... total_job2.gbw
Electron density file                           ... total_job2.scfp.tmp

-------------
DIPOLE MOMENT
-------------
                                X             Y             Z
Electronic contribution:     18.68740       0.60470       8.31315
Nuclear contribution   :    -17.88023       0.74353      -6.81198
                        -----------------------------------------
Total Dipole Moment    :      0.80717       1.34823       1.50117
                        -----------------------------------------
Magnitude (a.u.)       :      2.17319
Magnitude (Debye)      :      5.52381


------------------------
QUADRUPOLE MOMENT (A.U.)
------------------------

                XX           YY           ZZ           XY           XZ           YZ
  NUC     43549.04521   3175.06579   2438.76709   -535.23127  -2761.20370   1648.79000
  EL     -43667.96547  -3367.47131  -2646.35134    538.53679   2770.99523  -1647.96892
  TOT      -118.92026   -192.40552   -207.58425      3.30553      9.79153      0.82109

--------------------------------------------------------------------------
[[57070,1],8]: A high-performance Open MPI point-to-point messaging module
was unable to find any relevant network interfaces:

Module: OpenFabrics (openib)
  Host: cx1-136-7-2

Another transport will be used instead, although this may result in
lower performance.
--------------------------------------------------------------------------

Timings for individual modules:

Sum of individual times         ...      353.740 sec (=   5.896 min)
GTO integral calculation        ...       10.271 sec (=   0.171 min)   2.9 %
SCF iterations                  ...      248.390 sec (=   4.140 min)  70.2 %
CIS module                      ...       95.079 sec (=   1.585 min)  26.9 %



                             ****ORCA TERMINATED NORMALLY****
TOTAL RUN TIME: 0 days 0 hours 21 minutes 52 seconds 995 msec
