
                                 *****************
                                 * O   R   C   A *
                                 *****************

           --- An Ab Initio, DFT and Semiempirical electronic structure package ---

                  #######################################################
                  #                        -***-                        #
                  #  Department of molecular theory and spectroscopy    #
                  #              Directorship: Frank Neese              #
                  # Max Planck Institute for Chemical Energy Conversion #
                  #                  D-45470 Muelheim/Ruhr              #
                  #                       Germany                       #
                  #                                                     #
                  #                  All rights reserved                #
                  #                        -***-                        #
                  #######################################################


                         Program Version 4.0.0 -  RELEASE  -


 With contributions from (in alphabetic order):
   Daniel Aravena         : Magnetic Properties
   Michael Atanasov       : Ab Initio Ligand Field Theory
   Ute Becker             : Parallelization
   Martin Brehm           : Molecular dynamics
   Dmytro Bykov           : SCF Hessian
   Vijay G. Chilkuri      : MRCI spin determinant printing
   Dipayan Datta          : RHF DLPNO-CCSD density
   Achintya Kumar Dutta   : EOM-CC, STEOM-CC
   Dmitry Ganyushin       : Spin-Orbit,Spin-Spin,Magnetic field MRCI
   Yang Guo               : DLPNO-NEVPT2, CIM, IAO-localization
   Andreas Hansen         : Spin unrestricted coupled pair/coupled cluster methods
   Lee Huntington         : MR-EOM, pCC
   Robert Izsak           : Overlap fitted RIJCOSX, COSX-SCS-MP3, EOM
   Christian Kollmar      : KDIIS, OOCD, Brueckner-CCSD(T), CCSD density
   Simone Kossmann        : Meta GGA functionals, TD-DFT gradient, OOMP2, MP2 Hessian
   Martin Krupicka        : AUTO-CI
   Dagmar Lenk            : GEPOL surface
   Dimitrios Liakos       : Extrapolation schemes; parallel MDCI
   Dimitrios Manganas     : ROCIS; embedding schemes
   Dimitrios Pantazis     : SARC Basis sets
   Taras Petrenko         : DFT Hessian,TD-DFT gradient, ASA, ECA, R-Raman, ABS, FL, XAS/XES, NRVS
   Peter Pinski           : DLPNO-MP2
   Christoph Reimann      : Effective Core Potentials
   Marius Retegan         : Local ZFS, SOC
   Christoph Riplinger    : Optimizer, TS searches, QM/MM, DLPNO-CCSD(T), (RO)-DLPNO pert. Triples
   Tobias Risthaus        : Range-separated hybrids, TD-DFT gradient, RPA, STAB
   Michael Roemelt        : Restricted open shell CIS
   Masaaki Saitow         : Open-shell DLPNO
   Barbara Sandhoefer     : DKH picture change effects
   Kantharuban Sivalingam : CASSCF convergence, NEVPT2, FIC-MRCI
   Georgi Stoychev        : AutoAux
   Boris Wezisla          : Elementary symmetry handling
   Frank Wennmohs         : Technical directorship


 We gratefully acknowledge several colleagues who have allowed us to
 interface, adapt or use parts of their codes:
   Stefan Grimme, W. Hujo, H. Kruse,             : VdW corrections, initial TS optimization,
                  C. Bannwarth                     DFT functionals, gCP, sTDA/sTD-DF
   Ed Valeev                                     : LibInt (2-el integral package), F12 methods
   Garnet Chan, S. Sharma, J. Yang, R. Olivares  : DMRG
   Ulf Ekstrom                                   : XCFun DFT Library
   Mihaly Kallay                                 : mrcc  (arbitrary order and MRCC methods)
   Jiri Pittner, Ondrej Demel                    : Mk-CCSD
   Frank Weinhold                                : gennbo (NPA and NBO analysis)
   Christopher J. Cramer and Donald G. Truhlar   : smd solvation model


 Your calculation uses the libint2 library for the computation of 2-el integrals
 For citations please refer to: http://libint.valeyev.net

 This ORCA versions uses:
   CBLAS   interface :  Fast vector & matrix operations
   LAPACKE interface :  Fast linear algebra routines
   SCALAPACK package :  Parallel linear algebra routines


Your calculation utilizes the atom-pairwise dispersion correction
with the zero-damping scheme (D30)
Cite in your paper:
S.Grimme, J.Antony, S.Ehrlich and H.Krieg, J.Chem.Phys., 132, (2010), 154104 
   

XCFun DFT library Copyright 2009-2010 Ulf Ekstrom and contributors.
See http://admol.org/xcfun for more information. This is free soft-
ware; see the source code for copying conditions. There is ABSOLUTELY
NO WARRANTY; not even for MERCHANTABILITY or FITNESS FOR A PARTICULAR
PURPOSE. For details see the documentation. Scientific users of this 
library should cite U. Ekstrom, L. Visscher, R. Bast, A. J. Thorvald-
sen and K. Ruud; J.Chem.Theor.Comp. 2010, DOI: 10.1021/ct100117s
XCFun Version 0.99 
Your calculation utilizes the basis: def2-TZVP
   F. Weigend and R. Ahlrichs, Phys. Chem. Chem. Phys. 7, 3297 (2005).

Your calculation utilizes the auxiliary basis: def2/J
   F. Weigend, Phys. Chem. Chem. Phys. 8, 1057 (2006).

================================================================================
                                        WARNINGS
                       Please study these warnings very carefully!
================================================================================

Warning: TCutStore was < 0. Adjusted to Thresh (uncritical)
INFO   : Checking CIS options ...

WARNING: CIS/ROCIS methods need fully converged wavefunctions
  ===> : Setting SCFConvForced true
         You can overwrite this default with %scf ConvForced false 


INFO   : the flag for use of LIBINT has been found!

Your calculation utilizes the atom-pairwise dispersion correction
with the zero-damping scheme (D30)
Cite in your paper:
S.Grimme, J.Antony, S.Ehrlich and H.Krieg, J.Chem.Phys., 132, (2010), 154104 
   

XCFun DFT library Copyright 2009-2010 Ulf Ekstrom and contributors.
See http://admol.org/xcfun for more information. This is free soft-
ware; see the source code for copying conditions. There is ABSOLUTELY
NO WARRANTY; not even for MERCHANTABILITY or FITNESS FOR A PARTICULAR
PURPOSE. For details see the documentation. Scientific users of this 
library should cite U. Ekstrom, L. Visscher, R. Bast, A. J. Thorvald-
sen and K. Ruud; J.Chem.Theor.Comp. 2010, DOI: 10.1021/ct100117s
XCFun Version 0.99 
Your calculation utilizes the basis: def2-TZVP
   F. Weigend and R. Ahlrichs, Phys. Chem. Chem. Phys. 7, 3297 (2005).

Your calculation utilizes the auxiliary basis: def2/J
   F. Weigend, Phys. Chem. Chem. Phys. 8, 1057 (2006).

================================================================================
                                        WARNINGS
                       Please study these warnings very carefully!
================================================================================

INFO   : Checking CIS options ...

INFO   : the flag for use of LIBINT has been found!

================================================================================
                                       INPUT FILE
================================================================================
NAME = total.inp
|  1> # 
|  2> !wB97X-D3 def2-TZVP def2/J RIJCOSX Grid5 FinalGrid6 TightSCF
|  3> %pal 
|  4>  nprocs 24
|  5> end
|  6> %tddft
|  7>   Mode sTDDFT
|  8>   nroots 2
|  9>   Ethresh 10.0
| 10>   maxcore 5000
| 11>   triplets true
| 12> end
| 13> * xyz 0 1 
| 14> C 8.79918448 1.84458065 0.22833327
| 15> C 7.58195060 1.19214980 0.04471876
| 16> C 7.32448374 0.00811747 0.76003589
| 17> C 8.30482650 -0.45339940 1.68360351
| 18> C 9.53525017 0.19657475 1.86358827
| 19> C 9.77030744 1.34788002 1.11531283
| 20> C 6.19601309 -0.90236546 0.86508350
| 21> C 6.53774033 -1.83927239 1.88192988
| 22> N 7.81678620 -1.57115002 2.33743148
| 23> C 5.65577558 -2.83553649 2.32815146
| 24> C 4.39007356 -2.87483806 1.74495887
| 25> C 4.03361806 -1.98061766 0.72727651
| 26> C 4.92271597 -1.00114194 0.24293761
| 27> H 3.05017911 -2.05973617 0.27256530
| 28> H 8.29419436 -2.07728005 3.07310173
| 29> H 3.67112457 -3.62101810 2.07213610
| 30> H 6.84072854 1.61553034 -0.62576568
| 31> H 10.27171761 -0.17818745 2.56944681
| 32> H 10.71125865 1.87937041 1.22981651
| 33> H 9.00274775 2.75938274 -0.32150425
| 34> O 0.61913062 0.68701953 -1.77771039
| 35> C 1.63357083 1.04526109 -2.59667556
| 36> C 1.12080813 1.72249609 -3.69527384
| 37> C -0.28392069 1.76624668 -3.51261501
| 38> C -0.54545639 1.11419021 -2.31486345
| 39> C 2.98158152 0.68938508 -2.22390335
| 40> C 4.20525011 0.90359345 -2.84392522
| 41> C 5.18459366 0.33261124 -1.99246915
| 42> C 4.50418374 -0.19214259 -0.90286818
| 43> O 3.17828476 0.01850826 -1.06782602
| 44> H 6.24510343 0.26999939 -2.18518151
| 45> H 4.37244186 1.40249240 -3.78754233
| 46> H -1.00781388 2.21862028 -4.17493319
| 47> H 1.68483880 2.13189611 -4.52086937
| 48> C -4.21169921 0.98589947 -1.43829171
| 49> C -4.18979875 0.30016592 -0.20508791
| 50> C -2.94616383 -0.11169510 0.31950061
| 51> C -1.76887176 0.15100568 -0.36907362
| 52> C -1.78351980 0.83917218 -1.60069826
| 53> C -3.02948671 1.25148296 -2.11764635
| 54> N -5.39422565 0.03011671 0.49312571
| 55> C -6.47509102 0.94933940 0.42821700
| 56> C -7.80705342 0.48869484 0.44502815
| 57> C -8.86212733 1.39618473 0.38542207
| 58> C -8.61492271 2.76857153 0.29960351
| 59> C -7.29646068 3.23024786 0.27863912
| 60> C -6.23133270 2.33517283 0.34651583
| 61> C -5.52092742 -1.15990309 1.25823767
| 62> C -4.89613367 -2.35095775 0.83679279
| 63> C -5.02116077 -3.51286498 1.59480920
| 64> C -5.77190022 -3.51514276 2.77307133
| 65> C -6.39734543 -2.33844731 3.19272990
| 66> C -6.27381316 -1.16670741 2.44973439
| 67> H -4.32176305 -2.36143244 -0.08522927
| 68> H -4.53728041 -4.42585696 1.25753329
| 69> H -6.97778717 -2.33009941 4.11169776
| 70> H -6.75268462 -0.25293809 2.79004506
| 71> H -8.00806844 -0.57752329 0.49871452
| 72> H -9.88491278 1.02837312 0.39575170
| 73> H -9.44149538 3.47129208 0.24988543
| 74> H -7.09553912 4.29682101 0.21946273
| 75> H -5.20935986 2.70354396 0.34364044
| 76> H -2.91021335 -0.63110894 1.27293083
| 77> H -0.81833884 -0.16720102 0.05009201
| 78> H -3.06722888 1.77610698 -3.06904994
| 79> H -5.16082561 1.30109292 -1.86222294
| 80> H 5.94295743 -3.53574539 3.10738326
| 81> H -5.86869848 -4.42488049 3.35833388
| 82> *
| 83> $new_job
| 84> # 
| 85> !wB97X-D3 def2-TZVP def2/J RIJCOSX Grid5 FinalGrid6 TightSCF
| 86> %pal 
| 87>  nprocs 24
| 88> end
| 89> %elprop
| 90>    dipole     true
| 91>    quadrupole true
| 92> end
| 93> %tddft
| 94>   Mode sTDDFT
| 95>   nroots 2
| 96>   Ethresh 10.0
| 97>   maxcore 5000
| 98> end
| 99> * xyz 0 1 
|100> C 8.79918448 1.84458065 0.22833327
|101> C 7.58195060 1.19214980 0.04471876
|102> C 7.32448374 0.00811747 0.76003589
|103> C 8.30482650 -0.45339940 1.68360351
|104> C 9.53525017 0.19657475 1.86358827
|105> C 9.77030744 1.34788002 1.11531283
|106> C 6.19601309 -0.90236546 0.86508350
|107> C 6.53774033 -1.83927239 1.88192988
|108> N 7.81678620 -1.57115002 2.33743148
|109> C 5.65577558 -2.83553649 2.32815146
|110> C 4.39007356 -2.87483806 1.74495887
|111> C 4.03361806 -1.98061766 0.72727651
|112> C 4.92271597 -1.00114194 0.24293761
|113> H 3.05017911 -2.05973617 0.27256530
|114> H 8.29419436 -2.07728005 3.07310173
|115> H 3.67112457 -3.62101810 2.07213610
|116> H 6.84072854 1.61553034 -0.62576568
|117> H 10.27171761 -0.17818745 2.56944681
|118> H 10.71125865 1.87937041 1.22981651
|119> H 9.00274775 2.75938274 -0.32150425
|120> O 0.61913062 0.68701953 -1.77771039
|121> C 1.63357083 1.04526109 -2.59667556
|122> C 1.12080813 1.72249609 -3.69527384
|123> C -0.28392069 1.76624668 -3.51261501
|124> C -0.54545639 1.11419021 -2.31486345
|125> C 2.98158152 0.68938508 -2.22390335
|126> C 4.20525011 0.90359345 -2.84392522
|127> C 5.18459366 0.33261124 -1.99246915
|128> C 4.50418374 -0.19214259 -0.90286818
|129> O 3.17828476 0.01850826 -1.06782602
|130> H 6.24510343 0.26999939 -2.18518151
|131> H 4.37244186 1.40249240 -3.78754233
|132> H -1.00781388 2.21862028 -4.17493319
|133> H 1.68483880 2.13189611 -4.52086937
|134> C -4.21169921 0.98589947 -1.43829171
|135> C -4.18979875 0.30016592 -0.20508791
|136> C -2.94616383 -0.11169510 0.31950061
|137> C -1.76887176 0.15100568 -0.36907362
|138> C -1.78351980 0.83917218 -1.60069826
|139> C -3.02948671 1.25148296 -2.11764635
|140> N -5.39422565 0.03011671 0.49312571
|141> C -6.47509102 0.94933940 0.42821700
|142> C -7.80705342 0.48869484 0.44502815
|143> C -8.86212733 1.39618473 0.38542207
|144> C -8.61492271 2.76857153 0.29960351
|145> C -7.29646068 3.23024786 0.27863912
|146> C -6.23133270 2.33517283 0.34651583
|147> C -5.52092742 -1.15990309 1.25823767
|148> C -4.89613367 -2.35095775 0.83679279
|149> C -5.02116077 -3.51286498 1.59480920
|150> C -5.77190022 -3.51514276 2.77307133
|151> C -6.39734543 -2.33844731 3.19272990
|152> C -6.27381316 -1.16670741 2.44973439
|153> H -4.32176305 -2.36143244 -0.08522927
|154> H -4.53728041 -4.42585696 1.25753329
|155> H -6.97778717 -2.33009941 4.11169776
|156> H -6.75268462 -0.25293809 2.79004506
|157> H -8.00806844 -0.57752329 0.49871452
|158> H -9.88491278 1.02837312 0.39575170
|159> H -9.44149538 3.47129208 0.24988543
|160> H -7.09553912 4.29682101 0.21946273
|161> H -5.20935986 2.70354396 0.34364044
|162> H -2.91021335 -0.63110894 1.27293083
|163> H -0.81833884 -0.16720102 0.05009201
|164> H -3.06722888 1.77610698 -3.06904994
|165> H -5.16082561 1.30109292 -1.86222294
|166> H 5.94295743 -3.53574539 3.10738326
|167> H -5.86869848 -4.42488049 3.35833388
|168> *
|169> 
|170>                          ****END OF INPUT****
================================================================================


                 $$$$$$$$$$$$$$$$$$$$$$$$$$$$$$$$$$$$$$$$$$$$$$ 
                 $ THERE ARE  2 JOBS TO BE PROCESSED THIS RUN $
                 $$$$$$$$$$$$$$$$$$$$$$$$$$$$$$$$$$$$$$$$$$$$$$ 




                 $$$$$$$$$$$$$$$$  JOB NUMBER  1 $$$$$$$$$$$$$$


                       ****************************
                       * Single Point Calculation *
                       ****************************

---------------------------------
CARTESIAN COORDINATES (ANGSTROEM)
---------------------------------
  C      8.799184    1.844581    0.228333
  C      7.581951    1.192150    0.044719
  C      7.324484    0.008117    0.760036
  C      8.304827   -0.453399    1.683604
  C      9.535250    0.196575    1.863588
  C      9.770307    1.347880    1.115313
  C      6.196013   -0.902365    0.865084
  C      6.537740   -1.839272    1.881930
  N      7.816786   -1.571150    2.337431
  C      5.655776   -2.835536    2.328151
  C      4.390074   -2.874838    1.744959
  C      4.033618   -1.980618    0.727277
  C      4.922716   -1.001142    0.242938
  H      3.050179   -2.059736    0.272565
  H      8.294194   -2.077280    3.073102
  H      3.671125   -3.621018    2.072136
  H      6.840729    1.615530   -0.625766
  H     10.271718   -0.178187    2.569447
  H     10.711259    1.879370    1.229817
  H      9.002748    2.759383   -0.321504
  O      0.619131    0.687020   -1.777710
  C      1.633571    1.045261   -2.596676
  C      1.120808    1.722496   -3.695274
  C     -0.283921    1.766247   -3.512615
  C     -0.545456    1.114190   -2.314863
  C      2.981582    0.689385   -2.223903
  C      4.205250    0.903593   -2.843925
  C      5.184594    0.332611   -1.992469
  C      4.504184   -0.192143   -0.902868
  O      3.178285    0.018508   -1.067826
  H      6.245103    0.269999   -2.185182
  H      4.372442    1.402492   -3.787542
  H     -1.007814    2.218620   -4.174933
  H      1.684839    2.131896   -4.520869
  C     -4.211699    0.985899   -1.438292
  C     -4.189799    0.300166   -0.205088
  C     -2.946164   -0.111695    0.319501
  C     -1.768872    0.151006   -0.369074
  C     -1.783520    0.839172   -1.600698
  C     -3.029487    1.251483   -2.117646
  N     -5.394226    0.030117    0.493126
  C     -6.475091    0.949339    0.428217
  C     -7.807053    0.488695    0.445028
  C     -8.862127    1.396185    0.385422
  C     -8.614923    2.768572    0.299604
  C     -7.296461    3.230248    0.278639
  C     -6.231333    2.335173    0.346516
  C     -5.520927   -1.159903    1.258238
  C     -4.896134   -2.350958    0.836793
  C     -5.021161   -3.512865    1.594809
  C     -5.771900   -3.515143    2.773071
  C     -6.397345   -2.338447    3.192730
  C     -6.273813   -1.166707    2.449734
  H     -4.321763   -2.361432   -0.085229
  H     -4.537280   -4.425857    1.257533
  H     -6.977787   -2.330099    4.111698
  H     -6.752685   -0.252938    2.790045
  H     -8.008068   -0.577523    0.498715
  H     -9.884913    1.028373    0.395752
  H     -9.441495    3.471292    0.249885
  H     -7.095539    4.296821    0.219463
  H     -5.209360    2.703544    0.343640
  H     -2.910213   -0.631109    1.272931
  H     -0.818339   -0.167201    0.050092
  H     -3.067229    1.776107   -3.069050
  H     -5.160826    1.301093   -1.862223
  H      5.942957   -3.535745    3.107383
  H     -5.868698   -4.424880    3.358334

----------------------------
CARTESIAN COORDINATES (A.U.)
----------------------------
  NO LB      ZA    FRAG     MASS         X           Y           Z
   0 C     6.0000    0    12.011   16.628049    3.485752    0.431487
   1 C     6.0000    0    12.011   14.327810    2.252837    0.084506
   2 C     6.0000    0    12.011   13.841268    0.015340    1.436260
   3 C     6.0000    0    12.011   15.693848   -0.856801    3.181550
   4 C     6.0000    0    12.011   18.019011    0.371472    3.521671
   5 C     6.0000    0    12.011   18.463205    2.547124    2.107636
   6 C     6.0000    0    12.011   11.708768   -1.705224    1.634771
   7 C     6.0000    0    12.011   12.354539   -3.475721    3.556332
   8 N     7.0000    0    14.007   14.771585   -2.969043    4.417105
   9 C     6.0000    0    12.011   10.687867   -5.358387    4.399569
  10 C     6.0000    0    12.011    8.296037   -5.432657    3.297494
  11 C     6.0000    0    12.011    7.622433   -3.742825    1.374353
  12 C     6.0000    0    12.011    9.302585   -1.891884    0.459086
  13 H     1.0000    0     1.008    5.764003   -3.892337    0.515074
  14 H     1.0000    0     1.008   15.673756   -3.925490    5.807321
  15 H     1.0000    0     1.008    6.937420   -6.842733    3.915770
  16 H     1.0000    0     1.008   12.927103    3.052910   -1.182526
  17 H     1.0000    0     1.008   19.410733   -0.336725    4.855551
  18 H     1.0000    0     1.008   20.241345    3.551495    2.324016
  19 H     1.0000    0     1.008   17.012728    5.214478   -0.607555
  20 O     8.0000    0    15.999    1.169987    1.298279   -3.359386
  21 C     6.0000    0    12.011    3.087001    1.975257   -4.907006
  22 C     6.0000    0    12.011    2.118020    3.255046   -6.983056
  23 C     6.0000    0    12.011   -0.536532    3.337723   -6.637880
  24 C     6.0000    0    12.011   -1.030763    2.105514   -4.374458
  25 C     6.0000    0    12.011    5.634373    1.302749   -4.202568
  26 C     6.0000    0    12.011    7.946771    1.707544   -5.374240
  27 C     6.0000    0    12.011    9.797462    0.628544   -3.765221
  28 C     6.0000    0    12.011    8.511674   -0.363097   -1.706174
  29 O     8.0000    0    15.999    6.006088    0.034976   -2.017899
  30 H     1.0000    0     1.008   11.801535    0.510225   -4.129395
  31 H     1.0000    0     1.008    8.262718    2.650327   -7.157418
  32 H     1.0000    0     1.008   -1.904492    4.192585   -7.889480
  33 H     1.0000    0     1.008    3.183884    4.028700   -8.543205
  34 C     6.0000    0    12.011   -7.958958    1.863080   -2.717977
  35 C     6.0000    0    12.011   -7.917572    0.567231   -0.387560
  36 C     6.0000    0    12.011   -5.567443   -0.211073    0.603769
  37 C     6.0000    0    12.011   -3.342683    0.285359   -0.697448
  38 C     6.0000    0    12.011   -3.370364    1.585806   -3.024881
  39 C     6.0000    0    12.011   -5.724900    2.364960   -4.001772
  40 N     7.0000    0    14.007  -10.193609    0.056912    0.931873
  41 C     6.0000    0    12.011  -12.236149    1.793991    0.809213
  42 C     6.0000    0    12.011  -14.753193    0.923499    0.840981
  43 C     6.0000    0    12.011  -16.746994    2.638407    0.728342
  44 C     6.0000    0    12.011  -16.279845    5.231842    0.566169
  45 C     6.0000    0    12.011  -13.788312    6.104284    0.526552
  46 C     6.0000    0    12.011  -11.775512    4.412837    0.654820
  47 C     6.0000    0    12.011  -10.433041   -2.191899    2.377725
  48 C     6.0000    0    12.011   -9.252352   -4.442666    1.581309
  49 C     6.0000    0    12.011   -9.488619   -6.638353    3.013753
  50 C     6.0000    0    12.011  -10.907311   -6.642657    5.240345
  51 C     6.0000    0    12.011  -12.089231   -4.419025    6.033385
  52 C     6.0000    0    12.011  -11.855789   -2.204757    4.629327
  53 H     1.0000    0     1.008   -8.166949   -4.462461   -0.161060
  54 H     1.0000    0     1.008   -8.574217   -8.363658    2.376394
  55 H     1.0000    0     1.008  -13.186107   -4.403250    7.769983
  56 H     1.0000    0     1.008  -12.760725   -0.477984    5.272421
  57 H     1.0000    0     1.008  -15.133056   -1.091361    0.942434
  58 H     1.0000    0     1.008  -18.679778    1.943344    0.747862
  59 H     1.0000    0     1.008  -17.841841    6.559791    0.472215
  60 H     1.0000    0     1.008  -13.408626    8.119815    0.414724
  61 H     1.0000    0     1.008   -9.844263    5.108958    0.649386
  62 H     1.0000    0     1.008   -5.499506   -1.192623    2.405491
  63 H     1.0000    0     1.008   -1.546436   -0.315964    0.094660
  64 H     1.0000    0     1.008   -5.796223    3.356356   -5.799664
  65 H     1.0000    0     1.008   -9.752547    2.458709   -3.519091
  66 H     1.0000    0     1.008   11.230562   -6.681590    5.872103
  67 H     1.0000    0     1.008  -11.090233   -8.361812    6.346331

--------------------------------
INTERNAL COORDINATES (ANGSTROEM)
--------------------------------
 C      0   0   0     0.000000000000     0.00000000     0.00000000
 C      1   0   0     1.393211621016     0.00000000     0.00000000
 C      2   1   0     1.407089314491   119.13864648     0.00000000
 C      3   2   1     1.423743971749   118.46030547     2.18274639
 C      4   3   2     1.403140519405   122.47010189   357.28800315
 C      5   4   3     1.393079997350   117.50946837     1.17851372
 C      3   2   1     1.453774457782   134.89221828   177.72727251
 C      7   3   2     1.424271274217   106.10076923   186.05807788
 N      4   3   2     1.383849990891   108.99441180   176.02933088
 C      8   7   3     1.403395053308   122.90166531   176.05189245
 C     10   8   7     1.394152005295   117.22940788   359.13585310
 C     11  10   8     1.400845470818   121.12541828     1.91320578
 C     12  11  10     1.408705771156   122.20959335   359.88975268
 H     12  11  10     1.086358224299   119.20516839   178.03774562
 H      9   4   3     1.012569442180   125.50139944   182.63144242
 H     11  10   8     1.086608136426   119.60969586   180.91747730
 H      2   1   3     1.085454102283   119.69384242   178.50857219
 H      5   4   3     1.086769191328   121.18642133   180.45409357
 H      6   5   4     1.086730098505   119.58368990   179.86307420
 H      1   2   3     1.086564387030   119.42320273   180.01506544
 O     14  12  11     4.202177297690   132.86940005   156.56286956
 C     21  14  12     1.352083542038    91.98652730    50.23120683
 C     22  21  14     1.388701196282   109.35087534   164.10310375
 C     23  22  21     1.417230193032   106.20510272     0.00000000
 C     21  14  12     1.351765920409   154.00780237   193.96284025
 C     22  21  14     1.443170009180   118.62121532   344.21435804
 C     26  22  21     1.388408139997   132.05453878   179.59300012
 C     27  26  22     1.417784155717   106.16901616   179.52307850
 C     28  27  26     1.387643511554   106.56840075   359.82415308
 O     26  22  21     1.351030223637   118.65099651   359.65066845
 H     28  27  26     1.079694063021   126.48737358   176.63567538
 H     27  26  22     1.080401080092   126.70279390   359.31955989
 H     24  23  22     1.080429820055   126.72766757   179.96778345
 H     23  22  21     1.080438314867   126.62210209   179.99337674
 C     25  21  14     3.771759926684   137.25055279    38.33518965
 C     35  25  21     1.411205776660   101.80214783     0.86063856
 C     36  35  25     1.411187595380   118.70767686     0.00000000
 C     37  36  35     1.388943047111   120.49667343   359.81689661
 C     38  37  36     1.410917060161   121.07815079     0.35388922
 C     35  25  21     1.389130559813    18.66667872   180.37596066
 N     36  35  25     1.418123052636   120.63719423   180.02022914
 C     41  36  35     1.420370882027   120.03736800   326.52496557
 C     42  41  36     1.409467935228   120.46913901   145.76827624
 C     43  42  41     1.392936373560   120.15637723   179.79233429
 C     44  43  42     1.397111476656   120.56868121     0.42529126
 C     45  44  43     1.397113690392   119.50520694   359.76451269
 C     46  45  44     1.392933656306   120.56696823   359.80656111
 C     41  36  35     1.420421336874   120.03325712   146.53031608
 C     48  41  36     1.409465934326   120.48850250   325.75840057
 C     49  48  41     1.392928233862   120.15764121   179.78057973
 C     50  49  48     1.397110073351   120.56645328     0.43645099
 C     51  50  49     1.397106727540   119.50561696   359.80171559
 C     52  51  50     1.392938240865   120.56842946   359.76619306
 H     49  48  41     1.086340649786   119.75576045   359.37855924
 H     50  49  48     1.086945075799   119.46113259   179.80213400
 H     52  51  50     1.086961006054   119.96558497   180.40574410
 H     53  52  51     1.086325732684   120.09195792   180.79980810
 H     43  42  41     1.086328847693   119.75063809   359.43003800
 H     44  43  42     1.086960053746   119.46310820   179.79528846
 H     45  44  43     1.086052686412   120.24754460   179.78428208
 H     46  45  44     1.086945078055   119.96805773   180.45315978
 H     47  46  45     1.086339745652   120.08823871   180.85621940
 H     37  36  35     1.086329765129   119.66767129   179.33344666
 H     38  37  36     1.086493516456   119.66283127   179.64965956
 H     40  35  25     1.087117116424   119.38761223   179.11369093
 H     35  25  21     1.086234561165   138.48315552   181.71942643
 H     10   8   7     1.086263373561   121.30151330   180.13173230
 H     51  50  49     1.086059341361   120.24722461   179.79261644

---------------------------
INTERNAL COORDINATES (A.U.)
---------------------------
 C      0   0   0     0.000000000000     0.00000000     0.00000000
 C      1   0   0     2.632788410317     0.00000000     0.00000000
 C      2   1   0     2.659013450355   119.13864648     0.00000000
 C      3   2   1     2.690486191427   118.46030547     2.18274639
 C      4   3   2     2.651551309084   122.47010189   357.28800315
 C      5   4   3     2.632539677635   117.50946837     1.17851372
 C      3   2   1     2.747235585698   134.89221828   177.72727251
 C      7   3   2     2.691482648681   106.10076923   186.05807788
 N      4   3   2     2.615097493213   108.99441180   176.02933088
 C      8   7   3     2.652032308452   122.90166531   176.05189245
 C     10   8   7     2.634565479064   117.22940788   359.13585310
 C     11  10   8     2.647214295790   121.12541828     1.91320578
 C     12  11  10     2.662068110760   122.20959335   359.88975268
 H     12  11  10     2.052919527258   119.20516839   178.03774562
 H      9   4   3     1.913478937298   125.50139944   182.63144242
 H     11  10   8     2.053391792735   119.60969586   180.91747730
 H      2   1   3     2.051210984257   119.69384242   178.50857219
 H      5   4   3     2.053696142393   121.18642133   180.45409357
 H      6   5   4     2.053622267663   119.58368990   179.86307420
 H      1   2   3     2.053309118358   119.42320273   180.01506544
 O     14  12  11     7.940964258815   132.86940005   156.56286956
 C     21  14  12     2.555067604633    91.98652730    50.23120683
 C     22  21  14     2.624264942822   109.35087534   164.10310375
 C     23  22  21     2.678176933554   106.20510272     0.00000000
 C     21  14  12     2.554467386741   154.00780237   193.96284025
 C     22  21  14     2.727196082038   118.62121532   344.21435804
 C     26  22  21     2.623711146701   132.05453878   179.59300012
 C     27  26  22     2.679223771318   106.16901616   179.52307850
 C     28  27  26     2.622266208351   106.56840075   359.82415308
 O     26  22  21     2.553077121324   118.65099651   359.65066845
 H     28  27  26     2.040326087530   126.48737358   176.63567538
 H     27  26  22     2.041662156167   126.70279390   359.31955989
 H     24  23  22     2.041716466826   126.72766757   179.96778345
 H     23  22  21     2.041732519694   126.62210209   179.99337674
 C     25  21  14     7.127593304331   137.25055279    38.33518965
 C     35  25  21     2.666792436495   101.80214783     0.86063856
 C     36  35  25     2.666758078855   118.70767686     0.00000000
 C     37  36  35     2.624721974654   120.49667343   359.81689661
 C     38  37  36     2.666246841381   121.07815079     0.35388922
 C     35  25  21     2.625076322307    18.66667872   180.37596066
 N     36  35  25     2.679864193683   120.63719423   180.02022914
 C     41  36  35     2.684111975627   120.03736800   326.52496557
 C     42  41  36     2.663508392124   120.46913901   145.76827624
 C     43  42  41     2.632268268007   120.15637723   179.79233429
 C     44  43  42     2.640158069438   120.56868121     0.42529126
 C     45  44  43     2.640162252794   119.50520694   359.76451269
 C     46  45  44     2.632263133139   120.56696823   359.80656111
 C     41  36  35     2.684207321471   120.03325712   146.53031608
 C     48  41  36     2.663504610967   120.48850250   325.75840057
 C     49  48  41     2.632252886206   120.15764121   179.78057973
 C     50  49  48     2.640155417577   120.56645328     0.43645099
 C     51  50  49     2.640149094909   119.50561696   359.80171559
 C     52  51  50     2.632271796701   120.56842946   359.76619306
 H     49  48  41     2.052886316241   119.75576045   359.37855924
 H     50  49  48     2.054028515875   119.46113259   179.80213400
 H     52  51  50     2.054058619693   119.96558497   180.40574410
 H     53  52  51     2.052858127004   120.09195792   180.79980810
 H     43  42  41     2.052864013518   119.75063809   359.43003800
 H     44  43  42     2.054056820091   119.46310820   179.79528846
 H     45  44  43     2.052342144328   120.24754460   179.78428208
 H     46  45  44     2.054028520137   119.96805773   180.45315978
 H     47  46  45     2.052884607676   120.08823871   180.85621940
 H     37  36  35     2.052865747221   119.66767129   179.33344666
 H     38  37  36     2.053175192384   119.66283127   179.64965956
 H     40  35  25     2.054353625540   119.38761223   179.11369093
 H     35  25  21     2.052685837802   138.48315552   181.71942643
 H     10   8   7     2.052740285339   121.30151330   180.13173230
 H     51  50  49     2.052354720359   120.24722461   179.79261644

---------------------
BASIS SET INFORMATION
---------------------
There are 4 groups of distinct atoms

 Group   1 Type C   : 11s6p2d1f contracted to 5s3p2d1f pattern {62111/411/11/1}
 Group   2 Type N   : 11s6p2d1f contracted to 5s3p2d1f pattern {62111/411/11/1}
 Group   3 Type H   : 5s1p contracted to 3s1p pattern {311/1}
 Group   4 Type O   : 11s6p2d1f contracted to 5s3p2d1f pattern {62111/411/11/1}

Atom   0C    basis set group =>   1
Atom   1C    basis set group =>   1
Atom   2C    basis set group =>   1
Atom   3C    basis set group =>   1
Atom   4C    basis set group =>   1
Atom   5C    basis set group =>   1
Atom   6C    basis set group =>   1
Atom   7C    basis set group =>   1
Atom   8N    basis set group =>   2
Atom   9C    basis set group =>   1
Atom  10C    basis set group =>   1
Atom  11C    basis set group =>   1
Atom  12C    basis set group =>   1
Atom  13H    basis set group =>   3
Atom  14H    basis set group =>   3
Atom  15H    basis set group =>   3
Atom  16H    basis set group =>   3
Atom  17H    basis set group =>   3
Atom  18H    basis set group =>   3
Atom  19H    basis set group =>   3
Atom  20O    basis set group =>   4
Atom  21C    basis set group =>   1
Atom  22C    basis set group =>   1
Atom  23C    basis set group =>   1
Atom  24C    basis set group =>   1
Atom  25C    basis set group =>   1
Atom  26C    basis set group =>   1
Atom  27C    basis set group =>   1
Atom  28C    basis set group =>   1
Atom  29O    basis set group =>   4
Atom  30H    basis set group =>   3
Atom  31H    basis set group =>   3
Atom  32H    basis set group =>   3
Atom  33H    basis set group =>   3
Atom  34C    basis set group =>   1
Atom  35C    basis set group =>   1
Atom  36C    basis set group =>   1
Atom  37C    basis set group =>   1
Atom  38C    basis set group =>   1
Atom  39C    basis set group =>   1
Atom  40N    basis set group =>   2
Atom  41C    basis set group =>   1
Atom  42C    basis set group =>   1
Atom  43C    basis set group =>   1
Atom  44C    basis set group =>   1
Atom  45C    basis set group =>   1
Atom  46C    basis set group =>   1
Atom  47C    basis set group =>   1
Atom  48C    basis set group =>   1
Atom  49C    basis set group =>   1
Atom  50C    basis set group =>   1
Atom  51C    basis set group =>   1
Atom  52C    basis set group =>   1
Atom  53H    basis set group =>   3
Atom  54H    basis set group =>   3
Atom  55H    basis set group =>   3
Atom  56H    basis set group =>   3
Atom  57H    basis set group =>   3
Atom  58H    basis set group =>   3
Atom  59H    basis set group =>   3
Atom  60H    basis set group =>   3
Atom  61H    basis set group =>   3
Atom  62H    basis set group =>   3
Atom  63H    basis set group =>   3
Atom  64H    basis set group =>   3
Atom  65H    basis set group =>   3
Atom  66H    basis set group =>   3
Atom  67H    basis set group =>   3
-------------------------------
AUXILIARY BASIS SET INFORMATION
-------------------------------
There are 4 groups of distinct atoms

 Group   1 Type C   : 12s5p4d2f1g contracted to 6s4p3d1f1g pattern {711111/2111/211/2/1}
 Group   2 Type N   : 12s5p4d2f1g contracted to 6s4p3d1f1g pattern {711111/2111/211/2/1}
 Group   3 Type H   : 5s2p1d contracted to 3s1p1d pattern {311/2/1}
 Group   4 Type O   : 12s5p4d2f1g contracted to 6s4p3d1f1g pattern {711111/2111/211/2/1}

Atom   0C    basis set group =>   1
Atom   1C    basis set group =>   1
Atom   2C    basis set group =>   1
Atom   3C    basis set group =>   1
Atom   4C    basis set group =>   1
Atom   5C    basis set group =>   1
Atom   6C    basis set group =>   1
Atom   7C    basis set group =>   1
Atom   8N    basis set group =>   2
Atom   9C    basis set group =>   1
Atom  10C    basis set group =>   1
Atom  11C    basis set group =>   1
Atom  12C    basis set group =>   1
Atom  13H    basis set group =>   3
Atom  14H    basis set group =>   3
Atom  15H    basis set group =>   3
Atom  16H    basis set group =>   3
Atom  17H    basis set group =>   3
Atom  18H    basis set group =>   3
Atom  19H    basis set group =>   3
Atom  20O    basis set group =>   4
Atom  21C    basis set group =>   1
Atom  22C    basis set group =>   1
Atom  23C    basis set group =>   1
Atom  24C    basis set group =>   1
Atom  25C    basis set group =>   1
Atom  26C    basis set group =>   1
Atom  27C    basis set group =>   1
Atom  28C    basis set group =>   1
Atom  29O    basis set group =>   4
Atom  30H    basis set group =>   3
Atom  31H    basis set group =>   3
Atom  32H    basis set group =>   3
Atom  33H    basis set group =>   3
Atom  34C    basis set group =>   1
Atom  35C    basis set group =>   1
Atom  36C    basis set group =>   1
Atom  37C    basis set group =>   1
Atom  38C    basis set group =>   1
Atom  39C    basis set group =>   1
Atom  40N    basis set group =>   2
Atom  41C    basis set group =>   1
Atom  42C    basis set group =>   1
Atom  43C    basis set group =>   1
Atom  44C    basis set group =>   1
Atom  45C    basis set group =>   1
Atom  46C    basis set group =>   1
Atom  47C    basis set group =>   1
Atom  48C    basis set group =>   1
Atom  49C    basis set group =>   1
Atom  50C    basis set group =>   1
Atom  51C    basis set group =>   1
Atom  52C    basis set group =>   1
Atom  53H    basis set group =>   3
Atom  54H    basis set group =>   3
Atom  55H    basis set group =>   3
Atom  56H    basis set group =>   3
Atom  57H    basis set group =>   3
Atom  58H    basis set group =>   3
Atom  59H    basis set group =>   3
Atom  60H    basis set group =>   3
Atom  61H    basis set group =>   3
Atom  62H    basis set group =>   3
Atom  63H    basis set group =>   3
Atom  64H    basis set group =>   3
Atom  65H    basis set group =>   3
Atom  66H    basis set group =>   3
Atom  67H    basis set group =>   3
-------------------------
ECP PARAMETER INFORMATION
-------------------------



--------------------------------------------------------------------------
[[18799,1],0]: A high-performance Open MPI point-to-point messaging module
was unable to find any relevant network interfaces:

Module: OpenFabrics (openib)
  Host: cx1-105-6-2

Another transport will be used instead, although this may result in
lower performance.
--------------------------------------------------------------------------


           ************************************************************
           *        Program running with 24 parallel MPI-processes    *
           *              working on a common directory               *
           ************************************************************
------------------------------------------------------------------------------
                           ORCA GTO INTEGRAL CALCULATION
                           -- RI-GTO INTEGRALS CHOSEN --
------------------------------------------------------------------------------

                         BASIS SET STATISTICS AND STARTUP INFO

Gaussian basis set:
 # of primitive gaussian shells          ...  996
 # of primitive gaussian functions       ... 2140
 # of contracted shells                  ...  566
 # of contracted basis functions         ... 1458
 Highest angular momentum                ...    3
 Maximum contraction depth               ...    6
Auxiliary gaussian basis set:
 # of primitive gaussian shells          ... 1216
 # of primitive gaussian functions       ... 3356
 # of contracted shells                  ...  760
 # of contracted aux-basis functions     ... 2344
 Highest angular momentum                ...    4
 Maximum contraction depth               ...    7
Ratio of auxiliary to basis functions    ...  1.61
Integral package used                  ... LIBINT
 One Electron integrals                  
   ECP integrals                         ... done
 Ordering auxiliary basis shells         ... done
 Integral threshhold             Thresh  ...  2.500e-11
 Primitive cut-off               TCut    ...  2.500e-12
 Pre-screening matrix                    ... done
 Shell pair data                         ... 
 Ordering of the shell pairs             ... done (   0.026 sec) 71434 of 160461 pairs
 Determination of significant pairs      ... done (   0.001 sec)
 Creation of shell pair data             ... done (   0.018 sec)
 Storage of shell pair data              ... done (   0.174 sec)
 Shell pair data done in (   0.219 sec)
 Computing two index integrals           ... done
 Cholesky decomposition of the V-matrix  ... done


Timings:
 Total evaluation time                   ...   9.533 sec (  0.159 min)
 One electron matrix time                ...   3.096 sec (  0.052 min) = 32.5%
 Schwartz matrix evaluation time         ...   4.408 sec (  0.073 min) = 46.2%
 Two index repulsion integral time       ...   0.757 sec (  0.013 min) =  7.9%
 Cholesky decomposition of V             ...   1.015 sec (  0.017 min) = 10.7%
 Three index repulsion integral time     ...   0.000 sec (  0.000 min) =  0.0%

--------------------------------------------------------------------------
[[18876,1],3]: A high-performance Open MPI point-to-point messaging module
was unable to find any relevant network interfaces:

Module: OpenFabrics (openib)
  Host: cx1-105-6-2

Another transport will be used instead, although this may result in
lower performance.
--------------------------------------------------------------------------


           ************************************************************
           *        Program running with 24 parallel MPI-processes    *
           *              working on a common directory               *
           ************************************************************
-------------------------------------------------------------------------------
                                 ORCA SCF
-------------------------------------------------------------------------------

------------
SCF SETTINGS
------------
Hamiltonian:
 Density Functional     Method          .... DFT(GTOs)
 Exchange Functional    Exchange        .... WB97X-D3
 Correlation Functional Correlation     .... WB97X-D3
 Gradients option       PostSCFGGA      .... off
 Hybrid DFT is turned on
   Fraction HF Exchange ScalHFX         ....  0.195728
   Scaling of DF-GGA-X  ScalDFX         ....  0.000000
   Scaling of DF-GGA-C  ScalDFC         ....  1.000000
   Scaling of DF-LDA-C  ScalLDAC        ....  1.000000
   Perturbative correction              ....  0.000000
 Long-range corrected/Screened/Range-Separated Hybrid DFT is turned on
   Amount of maximum screened exact exchange              ....  0.804272
   Range separation parameter mu (erf(mu*r12)/r12)        ....  0.250000
 RI-approximation to the Coulomb term is turned on
   Number of auxiliary basis functions  .... 2344
   RIJ-COSX (HFX calculated with COS-X)).... on


General Settings:
 Integral files         IntName         .... total
 Hartree-Fock type      HFTyp           .... RHF
 Total Charge           Charge          ....    0
 Multiplicity           Mult            ....    1
 Number of Electrons    NEL             ....  284
 Basis Dimension        Dim             .... 1458
 Nuclear Repulsion      ENuc            ....   4069.8276379351 Eh

Convergence Acceleration:
 DIIS                   CNVDIIS         .... on
   Start iteration      DIISMaxIt       ....    12
   Startup error        DIISStart       ....  0.200000
   # of expansion vecs  DIISMaxEq       ....     5
   Bias factor          DIISBfac        ....   1.050
   Max. coefficient     DIISMaxC        ....  10.000
 Newton-Raphson         CNVNR           .... off
 SOSCF                  CNVSOSCF        .... on
   Start iteration      SOSCFMaxIt      ....   150
   Startup grad/error   SOSCFStart      ....  0.003300
 Level Shifting         CNVShift        .... on
   Level shift para.    LevelShift      ....    0.2500
   Turn off err/grad.   ShiftErr        ....    0.0010
 Zerner damping         CNVZerner       .... off
 Static damping         CNVDamp         .... on
   Fraction old density DampFac         ....    0.7000
   Max. Damping (<1)    DampMax         ....    0.9800
   Min. Damping (>=0)   DampMin         ....    0.0000
   Turn off err/grad.   DampErr         ....    0.1000
 Fernandez-Rico         CNVRico         .... off

SCF Procedure:
 Maximum # iterations   MaxIter         ....   125
 SCF integral mode      SCFMode         .... Direct
   Integral package                     .... LIBINT
 Reset frequeny         DirectResetFreq ....    20
 Integral Threshold     Thresh          ....  2.500e-11 Eh
 Primitive CutOff       TCut            ....  2.500e-12 Eh

Convergence Tolerance:
 Convergence Check Mode ConvCheckMode   .... Total+1el-Energy
 Convergence forced     ConvForced      .... 1
 Energy Change          TolE            ....  1.000e-08 Eh
 1-El. energy change                    ....  1.000e-05 Eh
 Orbital Gradient       TolG            ....  1.000e-05
 Orbital Rotation angle TolX            ....  1.000e-05
 DIIS Error             TolErr          ....  5.000e-07


Diagonalization of the overlap matrix:
Smallest eigenvalue                        ... 6.147e-06
Time for diagonalization                   ...    0.682 sec
Threshold for overlap eigenvalues          ... 1.000e-08
Number of eigenvalues below threshold      ... 0
Time for construction of square roots      ...    0.689 sec
Total time needed                          ...    1.392 sec

-------------------
DFT GRID GENERATION
-------------------

General Integration Accuracy     IntAcc      ...  5.010
Radial Grid Type                 RadialGrid  ... Gauss-Chebyshev
Angular Grid (max. acc.)         AngularGrid ... Lebedev-434
Angular grid pruning method      GridPruning ... 3 (G Style)
Weight generation scheme         WeightScheme... Becke
Basis function cutoff            BFCut       ...    1.0000e-11
Integration weight cutoff        WCut        ...    1.0000e-14
Grids for H and He will be reduced by one unit

# of grid points (after initial pruning)     ... 623380 (   0.0 sec)
# of grid points (after weights+screening)   ... 537818 (   3.6 sec)
nearest neighbour list constructed           ...    0.0 sec
Grid point re-assignment to atoms done       ...    0.3 sec
Grid point division into batches done        ...    5.9 sec
Reduced shell lists constructed in    7.2 sec

Total number of grid points                  ...   537818
Total number of batches                      ...     8438
Average number of points per batch           ...       63
Average number of grid points per atom       ...     7909
Average number of shells per batch           ...   144.47 (25.53%)
Average number of basis functions per batch  ...   375.63 (25.76%)
Average number of large shells per batch     ...   100.76 (69.74%)
Average number of large basis fcns per batch ...   261.42 (69.59%)
Maximum spatial batch extension              ...  12.54, 15.18, 16.05 au
Average spatial batch extension              ...   0.05,  0.05,  0.06 au

Time for grid setup =   12.951 sec

------------------------------
INITIAL GUESS: MODEL POTENTIAL
------------------------------
Loading Hartree-Fock densities                     ... done
Calculating cut-offs                               ... done
Setting up the integral package                    ... done
Initializing the effective Hamiltonian             ... done
Starting the Coulomb interaction                   ... done (   0.8 sec)
Reading the grid                                   ... done
Mapping shells                                     ... done
Starting the XC term evaluation                    ... done (   3.5 sec)
  promolecular density results
     # of electrons  =    283.986884717
     EX              =   -231.535551972
     EC              =     -9.566869266
     EX+EC           =   -241.102421237
Transforming the Hamiltonian                       ... done (   0.4 sec)
Diagonalizing the Hamiltonian                      ... done (   0.7 sec)
Back transforming the eigenvectors                 ... done (   0.2 sec)
Now organizing SCF variables                       ... done
                      ------------------
                      INITIAL GUESS DONE (  18.9 sec)
                      ------------------
--------------------
COSX GRID GENERATION
--------------------

General Integration Accuracy     IntAcc      ...  3.340
Radial Grid Type                 RadialGrid  ... Gauss-Chebyshev
Angular Grid (max. acc.)         AngularGrid ... Lebedev-50
Angular grid pruning method      GridPruning ... 3 (G Style)
Weight generation scheme         WeightScheme... Becke
Basis function cutoff            BFCut       ...    1.0000e-11
Integration weight cutoff        WCut        ...    1.0000e-14
Grids for H and He will be reduced by one unit

# of grid points (after initial pruning)     ...  32652 (   0.0 sec)
# of grid points (after weights+screening)   ...  29401 (   0.2 sec)
nearest neighbour list constructed           ...    0.0 sec
Grid point re-assignment to atoms done       ...    0.0 sec
Grid point division into batches done        ...    0.0 sec
Reduced shell lists constructed in    0.1 sec

Total number of grid points                  ...    29401
Total number of batches                      ...      491
Average number of points per batch           ...       59
Average number of grid points per atom       ...      432
Average number of shells per batch           ...   159.68 (28.21%)
Average number of basis functions per batch  ...   418.41 (28.70%)
Average number of large shells per batch     ...   112.59 (70.51%)
Average number of large basis fcns per batch ...   295.68 (70.67%)
Maximum spatial batch extension              ...   6.80, 12.52, 15.04 au
Average spatial batch extension              ...   0.12,  0.15,  0.15 au

Overlap Fitting                  UseSFitting ... on
Constructing numerical overlap ... done (      0.2 sec)
Inverting numerical overlap    ... done (      0.2 sec)
Obtaining analytic overlap     ... done (      0.0 sec)
Final contraction and storage  ... done (      1.0 sec)


General Integration Accuracy     IntAcc      ...  3.670
Radial Grid Type                 RadialGrid  ... Gauss-Chebyshev
Angular Grid (max. acc.)         AngularGrid ... Lebedev-50
Angular grid pruning method      GridPruning ... 3 (G Style)
Weight generation scheme         WeightScheme... Becke
Basis function cutoff            BFCut       ...    1.0000e-11
Integration weight cutoff        WCut        ...    1.0000e-14
Grids for H and He will be reduced by one unit

# of grid points (after initial pruning)     ...  41036 (   0.0 sec)
# of grid points (after weights+screening)   ...  36795 (   0.2 sec)
nearest neighbour list constructed           ...    0.0 sec
Grid point re-assignment to atoms done       ...    0.0 sec
Grid point division into batches done        ...    0.0 sec
Reduced shell lists constructed in    0.1 sec

Total number of grid points                  ...    36795
Total number of batches                      ...      601
Average number of points per batch           ...       61
Average number of grid points per atom       ...      541
Average number of shells per batch           ...   160.22 (28.31%)
Average number of basis functions per batch  ...   419.04 (28.74%)
Average number of large shells per batch     ...   112.44 (70.18%)
Average number of large basis fcns per batch ...   296.22 (70.69%)
Maximum spatial batch extension              ...   8.52, 10.44, 14.75 au
Average spatial batch extension              ...   0.14,  0.14,  0.17 au

Overlap Fitting                  UseSFitting ... on
Constructing numerical overlap ... done (      0.2 sec)
Inverting numerical overlap    ... done (      0.3 sec)
Obtaining analytic overlap     ... done (      0.0 sec)
Final contraction and storage  ... done (      1.0 sec)


General Integration Accuracy     IntAcc      ...  4.010
Radial Grid Type                 RadialGrid  ... Gauss-Chebyshev
Angular Grid (max. acc.)         AngularGrid ... Lebedev-110
Angular grid pruning method      GridPruning ... 3 (G Style)
Weight generation scheme         WeightScheme... Becke
Basis function cutoff            BFCut       ...    1.0000e-11
Integration weight cutoff        WCut        ...    1.0000e-14
Grids for H and He will be reduced by one unit

# of grid points (after initial pruning)     ...  78932 (   0.0 sec)
# of grid points (after weights+screening)   ...  70179 (   0.5 sec)
nearest neighbour list constructed           ...    0.0 sec
Grid point re-assignment to atoms done       ...    0.0 sec
Grid point division into batches done        ...    0.1 sec
Reduced shell lists constructed in    0.3 sec

Total number of grid points                  ...    70179
Total number of batches                      ...     1136
Average number of points per batch           ...       61
Average number of grid points per atom       ...     1032
Average number of shells per batch           ...   158.37 (27.98%)
Average number of basis functions per batch  ...   416.45 (28.56%)
Average number of large shells per batch     ...   111.94 (70.68%)
Average number of large basis fcns per batch ...   295.12 (70.87%)
Maximum spatial batch extension              ...   8.53, 10.99, 14.61 au
Average spatial batch extension              ...   0.10,  0.10,  0.12 au

Overlap Fitting                  UseSFitting ... on
Constructing numerical overlap ... done (      0.4 sec)
Inverting numerical overlap    ... done (      0.3 sec)
Obtaining analytic overlap     ... done (      0.0 sec)
Final contraction and storage  ... done (      1.0 sec)

Time for X-Grid setup             =    6.885 sec
--------------
SCF ITERATIONS
--------------
ITER       Energy         Delta-E        Max-DP      RMS-DP      [F,P]     Damp
               ***  Starting incremental Fock matrix formation  ***
  0  -1722.9472466586   0.000000000000 0.02640904  0.00044639  0.1377889 0.7000
  1  -1723.2487493903  -0.301502731680 0.02016040  0.00036249  0.0834401 0.7000
                               ***Turning on DIIS***
  2  -1723.4129573994  -0.164208009111 0.04532693  0.00082685  0.0466548 0.0000
  3  -1723.6912855174  -0.278328117995 0.01858499  0.00021833  0.0315161 0.0000
  4  -1723.7249571956  -0.033671678231 0.00892845  0.00008292  0.0064151 0.0000
                      *** Initiating the SOSCF procedure ***
                           *** Shutting down DIIS ***
                      *** Re-Reading the Fockian *** 
                      *** Removing any level shift *** 
ITER      Energy       Delta-E        Grad      Rot      Max-DP    RMS-DP
  5  -1723.72606524  -0.0011080418  0.001789  0.001789  0.003367  0.000032
               *** Restarting incremental Fock matrix formation ***
  6  -1723.72632031  -0.0002550761  0.001134  0.004206  0.009229  0.000105
  7  -1723.72642782  -0.0001075020  0.000554  0.004732  0.004664  0.000057
  8  -1723.72644368  -0.0000158642  0.000434  0.001266  0.004120  0.000047
  9  -1723.72645904  -0.0000153619  0.000072  0.000235  0.000405  0.000005
 10  -1723.72645937  -0.0000003320  0.000045  0.000099  0.000273  0.000003
 11  -1723.72645965  -0.0000002726  0.000008  0.000039  0.000236  0.000002
 12  -1723.72645964   0.0000000108  0.000004  0.000011  0.000128  0.000001
                  ***Gradient check signals convergence***
              ***Rediagonalizing the Fockian in SOSCF/NRSCF***

               *****************************************************
               *                     SUCCESS                       *
               *           SCF CONVERGED AFTER  13 CYCLES          *
               *****************************************************

Old exchange energy                            =    -76.564595858 Eh
New exchange energy                            =    -76.564455425 Eh
Exchange energy change after final integration =      0.000140433 Eh
Total energy after final integration           =  -1723.726319371 Eh
Final COS-X integration done in                =    80.959 sec

----------------
TOTAL SCF ENERGY
----------------

Total Energy       :        -1723.72631937 Eh          -46904.97775 eV

Components:
Nuclear Repulsion  :         4069.82763794 Eh          110745.64023 eV
Electronic Energy  :        -5793.55395731 Eh         -157650.61798 eV
One Electron Energy:       -10430.87823422 Eh         -283838.62683 eV
Two Electron Energy:         4637.32427692 Eh          126188.00885 eV

Virial components:
Potential Energy   :        -3438.44269047 Eh          -93564.78235 eV
Kinetic Energy     :         1714.71637110 Eh           46659.80460 eV
Virial Ratio       :            2.00525448


DFT components:
N(Alpha)           :      141.999852424386 electrons
N(Beta)            :      141.999852424386 electrons
N(Total)           :      283.999704848772 electrons
E(XC)              :     -170.166987219115 Eh       

---------------
SCF CONVERGENCE
---------------

  Last Energy change         ...   -1.6827e-07  Tolerance :   1.0000e-08
  Last MAX-Density change    ...    7.8187e-14  Tolerance :   1.0000e-07
  Last RMS-Density change    ...    1.7748e-16  Tolerance :   5.0000e-09
  Last Orbital Gradient      ...    2.3850e-06  Tolerance :   1.0000e-05
  Last Orbital Rotation      ...    1.0247e-05  Tolerance :   1.0000e-05

             **** THE GBW FILE WAS UPDATED (total.gbw) ****
             **** DENSITY FILE WAS UPDATED (total.scfp.tmp) ****
             **** ENERGY FILE WAS UPDATED (total.en.tmp) ****
----------------
ORBITAL ENERGIES
----------------

  NO   OCC          E(Eh)            E(eV) 
   0   2.0000     -19.306898      -525.3674 
   1   2.0000     -19.306242      -525.3496 
   2   2.0000     -14.465941      -393.6383 
   3   2.0000     -14.461816      -393.5260 
   4   2.0000     -10.347016      -281.5566 
   5   2.0000     -10.346393      -281.5397 
   6   2.0000     -10.341040      -281.3940 
   7   2.0000     -10.340590      -281.3818 
   8   2.0000     -10.332071      -281.1499 
   9   2.0000     -10.331316      -281.1294 
  10   2.0000     -10.331069      -281.1227 
  11   2.0000     -10.325994      -280.9846 
  12   2.0000     -10.324338      -280.9395 
  13   2.0000     -10.305559      -280.4285 
  14   2.0000     -10.299153      -280.2542 
  15   2.0000     -10.292842      -280.0825 
  16   2.0000     -10.291027      -280.0331 
  17   2.0000     -10.288731      -279.9706 
  18   2.0000     -10.287078      -279.9256 
  19   2.0000     -10.286185      -279.9013 
  20   2.0000     -10.286153      -279.9004 
  21   2.0000     -10.286007      -279.8965 
  22   2.0000     -10.285875      -279.8929 
  23   2.0000     -10.285837      -279.8918 
  24   2.0000     -10.285801      -279.8909 
  25   2.0000     -10.285380      -279.8794 
  26   2.0000     -10.284779      -279.8631 
  27   2.0000     -10.284579      -279.8576 
  28   2.0000     -10.284288      -279.8497 
  29   2.0000     -10.283665      -279.8327 
  30   2.0000     -10.283472      -279.8275 
  31   2.0000     -10.283301      -279.8228 
  32   2.0000     -10.283278      -279.8222 
  33   2.0000     -10.282980      -279.8141 
  34   2.0000     -10.282953      -279.8134 
  35   2.0000     -10.282882      -279.8114 
  36   2.0000     -10.281724      -279.7799 
  37   2.0000     -10.281373      -279.7704 
  38   2.0000     -10.280015      -279.7334 
  39   2.0000     -10.279667      -279.7240 
  40   2.0000     -10.276664      -279.6422 
  41   2.0000     -10.274485      -279.5829 
  42   2.0000      -1.248699       -33.9788 
  43   2.0000      -1.235981       -33.6327 
  44   2.0000      -1.102671       -30.0052 
  45   2.0000      -1.091325       -29.6965 
  46   2.0000      -0.983173       -26.7535 
  47   2.0000      -0.977699       -26.6046 
  48   2.0000      -0.972467       -26.4622 
  49   2.0000      -0.964257       -26.2388 
  50   2.0000      -0.960908       -26.1476 
  51   2.0000      -0.929314       -25.2879 
  52   2.0000      -0.920226       -25.0406 
  53   2.0000      -0.916304       -24.9339 
  54   2.0000      -0.899166       -24.4675 
  55   2.0000      -0.891322       -24.2541 
  56   2.0000      -0.879992       -23.9458 
  57   2.0000      -0.872170       -23.7329 
  58   2.0000      -0.864238       -23.5171 
  59   2.0000      -0.863346       -23.4928 
  60   2.0000      -0.862157       -23.4605 
  61   2.0000      -0.850684       -23.1483 
  62   2.0000      -0.837169       -22.7805 
  63   2.0000      -0.832528       -22.6543 
  64   2.0000      -0.808472       -21.9996 
  65   2.0000      -0.764386       -20.8000 
  66   2.0000      -0.747313       -20.3354 
  67   2.0000      -0.745996       -20.2996 
  68   2.0000      -0.734319       -19.9818 
  69   2.0000      -0.721607       -19.6359 
  70   2.0000      -0.721415       -19.6307 
  71   2.0000      -0.715070       -19.4580 
  72   2.0000      -0.712632       -19.3917 
  73   2.0000      -0.708356       -19.2753 
  74   2.0000      -0.704019       -19.1573 
  75   2.0000      -0.691474       -18.8160 
  76   2.0000      -0.680684       -18.5223 
  77   2.0000      -0.674254       -18.3474 
  78   2.0000      -0.661589       -18.0028 
  79   2.0000      -0.660559       -17.9747 
  80   2.0000      -0.644880       -17.5481 
  81   2.0000      -0.641446       -17.4546 
  82   2.0000      -0.635270       -17.2866 
  83   2.0000      -0.623139       -16.9565 
  84   2.0000      -0.609751       -16.5922 
  85   2.0000      -0.608746       -16.5648 
  86   2.0000      -0.593337       -16.1455 
  87   2.0000      -0.588164       -16.0048 
  88   2.0000      -0.585334       -15.9277 
  89   2.0000      -0.570344       -15.5198 
  90   2.0000      -0.568359       -15.4658 
  91   2.0000      -0.563341       -15.3293 
  92   2.0000      -0.557558       -15.1719 
  93   2.0000      -0.556517       -15.1436 
  94   2.0000      -0.555325       -15.1112 
  95   2.0000      -0.547227       -14.8908 
  96   2.0000      -0.543495       -14.7893 
  97   2.0000      -0.542714       -14.7680 
  98   2.0000      -0.536734       -14.6053 
  99   2.0000      -0.533195       -14.5090 
 100   2.0000      -0.529543       -14.4096 
 101   2.0000      -0.527482       -14.3535 
 102   2.0000      -0.527119       -14.3436 
 103   2.0000      -0.524433       -14.2705 
 104   2.0000      -0.522793       -14.2259 
 105   2.0000      -0.519045       -14.1239 
 106   2.0000      -0.514723       -14.0063 
 107   2.0000      -0.505301       -13.7499 
 108   2.0000      -0.502992       -13.6871 
 109   2.0000      -0.501281       -13.6406 
 110   2.0000      -0.487505       -13.2657 
 111   2.0000      -0.482483       -13.1290 
 112   2.0000      -0.480087       -13.0638 
 113   2.0000      -0.479019       -13.0348 
 114   2.0000      -0.476960       -12.9787 
 115   2.0000      -0.469054       -12.7636 
 116   2.0000      -0.463952       -12.6248 
 117   2.0000      -0.462827       -12.5942 
 118   2.0000      -0.457952       -12.4615 
 119   2.0000      -0.457125       -12.4390 
 120   2.0000      -0.452787       -12.3210 
 121   2.0000      -0.447867       -12.1871 
 122   2.0000      -0.439765       -11.9666 
 123   2.0000      -0.437462       -11.9040 
 124   2.0000      -0.437044       -11.8926 
 125   2.0000      -0.435142       -11.8408 
 126   2.0000      -0.430620       -11.7178 
 127   2.0000      -0.420931       -11.4541 
 128   2.0000      -0.390654       -10.6302 
 129   2.0000      -0.383459       -10.4344 
 130   2.0000      -0.380732       -10.3603 
 131   2.0000      -0.372542       -10.1374 
 132   2.0000      -0.355392        -9.6707 
 133   2.0000      -0.353091        -9.6081 
 134   2.0000      -0.349624        -9.5138 
 135   2.0000      -0.340573        -9.2675 
 136   2.0000      -0.340346        -9.2613 
 137   2.0000      -0.328444        -8.9374 
 138   2.0000      -0.300341        -8.1727 
 139   2.0000      -0.291877        -7.9424 
 140   2.0000      -0.272744        -7.4217 
 141   2.0000      -0.244690        -6.6583 
 142   0.0000       0.003830         0.1042 
 143   0.0000       0.026506         0.7213 
 144   0.0000       0.042976         1.1694 
 145   0.0000       0.045819         1.2468 
 146   0.0000       0.053571         1.4577 
 147   0.0000       0.067520         1.8373 
 148   0.0000       0.069586         1.8935 
 149   0.0000       0.073461         1.9990 
 150   0.0000       0.087964         2.3936 
 151   0.0000       0.094522         2.5721 
 152   0.0000       0.103152         2.8069 
 153   0.0000       0.112531         3.0621 
 154   0.0000       0.123060         3.3486 
 155   0.0000       0.131030         3.5655 
 156   0.0000       0.131343         3.5740 
 157   0.0000       0.135364         3.6834 
 158   0.0000       0.139035         3.7833 
 159   0.0000       0.141438         3.8487 
 160   0.0000       0.142453         3.8763 
 161   0.0000       0.147108         4.0030 
 162   0.0000       0.150641         4.0991 
 163   0.0000       0.151216         4.1148 
 164   0.0000       0.155339         4.2270 
 165   0.0000       0.155763         4.2385 
 166   0.0000       0.160670         4.3721 
 167   0.0000       0.166014         4.5175 
 168   0.0000       0.169113         4.6018 
 169   0.0000       0.171635         4.6704 
 170   0.0000       0.175799         4.7837 
 171   0.0000       0.179251         4.8777 
 172   0.0000       0.181365         4.9352 
 173   0.0000       0.183262         4.9868 
 174   0.0000       0.185384         5.0446 
 175   0.0000       0.187130         5.0921 
 176   0.0000       0.191516         5.2114 
 177   0.0000       0.192616         5.2413 
 178   0.0000       0.194957         5.3051 
 179   0.0000       0.201676         5.4879 
 180   0.0000       0.204911         5.5759 
 181   0.0000       0.208104         5.6628 
 182   0.0000       0.215214         5.8563 
 183   0.0000       0.219482         5.9724 
 184   0.0000       0.220275         5.9940 
 185   0.0000       0.224437         6.1072 
 186   0.0000       0.227022         6.1776 
 187   0.0000       0.230259         6.2657 
 188   0.0000       0.232418         6.3244 
 189   0.0000       0.237417         6.4604 
 190   0.0000       0.240399         6.5416 
 191   0.0000       0.246304         6.7023 
 192   0.0000       0.248385         6.7589 
 193   0.0000       0.253386         6.8950 
 194   0.0000       0.256678         6.9846 
 195   0.0000       0.258101         7.0233 
 196   0.0000       0.261879         7.1261 
 197   0.0000       0.266252         7.2451 
 198   0.0000       0.266973         7.2647 
 199   0.0000       0.269405         7.3309 
 200   0.0000       0.271614         7.3910 
 201   0.0000       0.274893         7.4802 
 202   0.0000       0.277894         7.5619 
 203   0.0000       0.278258         7.5718 
 204   0.0000       0.282626         7.6906 
 205   0.0000       0.283738         7.7209 
 206   0.0000       0.285858         7.7786 
 207   0.0000       0.287179         7.8145 
 208   0.0000       0.290363         7.9012 
 209   0.0000       0.292969         7.9721 
 210   0.0000       0.297322         8.0905 
 211   0.0000       0.297703         8.1009 
 212   0.0000       0.299329         8.1452 
 213   0.0000       0.300989         8.1903 
 214   0.0000       0.301617         8.2074 
 215   0.0000       0.302319         8.2265 
 216   0.0000       0.304564         8.2876 
 217   0.0000       0.308438         8.3930 
 218   0.0000       0.310476         8.4485 
 219   0.0000       0.313044         8.5184 
 220   0.0000       0.316447         8.6110 
 221   0.0000       0.316695         8.6177 
 222   0.0000       0.317194         8.6313 
 223   0.0000       0.321608         8.7514 
 224   0.0000       0.323319         8.7980 
 225   0.0000       0.325000         8.8437 
 226   0.0000       0.329556         8.9677 
 227   0.0000       0.331010         9.0072 
 228   0.0000       0.332670         9.0524 
 229   0.0000       0.336710         9.1623 
 230   0.0000       0.339313         9.2332 
 231   0.0000       0.341981         9.3058 
 232   0.0000       0.342494         9.3197 
 233   0.0000       0.346065         9.4169 
 234   0.0000       0.348456         9.4820 
 235   0.0000       0.352856         9.6017 
 236   0.0000       0.357964         9.7407 
 237   0.0000       0.359531         9.7833 
 238   0.0000       0.360752         9.8166 
 239   0.0000       0.364155         9.9092 
 240   0.0000       0.367731        10.0065 
 241   0.0000       0.370029        10.0690 
 242   0.0000       0.370762        10.0889 
 243   0.0000       0.373834        10.1725 
 244   0.0000       0.375432        10.2160 
 245   0.0000       0.377050        10.2600 
 246   0.0000       0.379194        10.3184 
 247   0.0000       0.380850        10.3635 
 248   0.0000       0.381537        10.3822 
 249   0.0000       0.383383        10.4324 
 250   0.0000       0.388180        10.5629 
 251   0.0000       0.389992        10.6122 
 252   0.0000       0.393401        10.7050 
 253   0.0000       0.393928        10.7193 
 254   0.0000       0.399676        10.8757 
 255   0.0000       0.403853        10.9894 
 256   0.0000       0.406238        11.0543 
 257   0.0000       0.407335        11.0841 
 258   0.0000       0.410836        11.1794 
 259   0.0000       0.414265        11.2727 
 260   0.0000       0.417775        11.3682 
 261   0.0000       0.420693        11.4476 
 262   0.0000       0.423395        11.5212 
 263   0.0000       0.424293        11.5456 
 264   0.0000       0.428153        11.6506 
 265   0.0000       0.430545        11.7157 
 266   0.0000       0.432959        11.7814 
 267   0.0000       0.433547        11.7974 
 268   0.0000       0.434911        11.8345 
 269   0.0000       0.437105        11.8942 
 270   0.0000       0.439454        11.9582 
 271   0.0000       0.442716        12.0469 
 272   0.0000       0.443565        12.0700 
 273   0.0000       0.447489        12.1768 
 274   0.0000       0.450633        12.2624 
 275   0.0000       0.455442        12.3932 
 276   0.0000       0.456238        12.4149 
 277   0.0000       0.456682        12.4270 
 278   0.0000       0.460827        12.5397 
 279   0.0000       0.463290        12.6068 
 280   0.0000       0.464929        12.6514 
 281   0.0000       0.466208        12.6862 
 282   0.0000       0.466831        12.7031 
 283   0.0000       0.470977        12.8159 
 284   0.0000       0.472759        12.8644 
 285   0.0000       0.473977        12.8976 
 286   0.0000       0.474594        12.9144 
 287   0.0000       0.477286        12.9876 
 288   0.0000       0.480275        13.0689 
 289   0.0000       0.480829        13.0840 
 290   0.0000       0.483898        13.1675 
 291   0.0000       0.486625        13.2418 
 292   0.0000       0.487909        13.2767 
 293   0.0000       0.489903        13.3309 
 294   0.0000       0.491177        13.3656 
 295   0.0000       0.493028        13.4160 
 296   0.0000       0.496277        13.5044 
 297   0.0000       0.496935        13.5223 
 298   0.0000       0.498923        13.5764 
 299   0.0000       0.501382        13.6433 
 300   0.0000       0.503304        13.6956 
 301   0.0000       0.504680        13.7330 
 302   0.0000       0.506484        13.7821 
 303   0.0000       0.509850        13.8737 
 304   0.0000       0.513660        13.9774 
 305   0.0000       0.515691        14.0327 
 306   0.0000       0.516879        14.0650 
 307   0.0000       0.519863        14.1462 
 308   0.0000       0.522433        14.2161 
 309   0.0000       0.527691        14.3592 
 310   0.0000       0.529495        14.4083 
 311   0.0000       0.532334        14.4855 
 312   0.0000       0.536761        14.6060 
 313   0.0000       0.537639        14.6299 
 314   0.0000       0.538174        14.6445 
 315   0.0000       0.541199        14.7268 
 316   0.0000       0.542415        14.7599 
 317   0.0000       0.545442        14.8422 
 318   0.0000       0.552401        15.0316 
 319   0.0000       0.555852        15.1255 
 320   0.0000       0.558044        15.1851 
 321   0.0000       0.562930        15.3181 
 322   0.0000       0.565241        15.3810 
 323   0.0000       0.565876        15.3983 
 324   0.0000       0.567320        15.4376 
 325   0.0000       0.567586        15.4448 
 326   0.0000       0.569392        15.4939 
 327   0.0000       0.572935        15.5904 
 328   0.0000       0.574607        15.6358 
 329   0.0000       0.576327        15.6827 
 330   0.0000       0.578749        15.7486 
 331   0.0000       0.579919        15.7804 
 332   0.0000       0.581694        15.8287 
 333   0.0000       0.584578        15.9072 
 334   0.0000       0.589659        16.0454 
 335   0.0000       0.591072        16.0839 
 336   0.0000       0.594619        16.1804 
 337   0.0000       0.597551        16.2602 
 338   0.0000       0.599308        16.3080 
 339   0.0000       0.601709        16.3733 
 340   0.0000       0.603987        16.4353 
 341   0.0000       0.606799        16.5118 
 342   0.0000       0.609285        16.5795 
 343   0.0000       0.611011        16.6265 
 344   0.0000       0.614099        16.7105 
 345   0.0000       0.623399        16.9636 
 346   0.0000       0.625824        17.0295 
 347   0.0000       0.631044        17.1716 
 348   0.0000       0.635409        17.2904 
 349   0.0000       0.636610        17.3230 
 350   0.0000       0.645909        17.5761 
 351   0.0000       0.652857        17.7651 
 352   0.0000       0.655785        17.8448 
 353   0.0000       0.661246        17.9934 
 354   0.0000       0.665851        18.1187 
 355   0.0000       0.668589        18.1932 
 356   0.0000       0.670241        18.2382 
 357   0.0000       0.671272        18.2662 
 358   0.0000       0.676704        18.4140 
 359   0.0000       0.681645        18.5485 
 360   0.0000       0.684572        18.6281 
 361   0.0000       0.688162        18.7258 
 362   0.0000       0.690688        18.7946 
 363   0.0000       0.691488        18.8163 
 364   0.0000       0.694863        18.9082 
 365   0.0000       0.699081        19.0230 
 366   0.0000       0.701949        19.1010 
 367   0.0000       0.707415        19.2497 
 368   0.0000       0.709820        19.3152 
 369   0.0000       0.711338        19.3565 
 370   0.0000       0.716002        19.4834 
 371   0.0000       0.719697        19.5840 
 372   0.0000       0.720963        19.6184 
 373   0.0000       0.723953        19.6998 
 374   0.0000       0.726965        19.7817 
 375   0.0000       0.728307        19.8182 
 376   0.0000       0.728931        19.8352 
 377   0.0000       0.733281        19.9536 
 378   0.0000       0.736939        20.0531 
 379   0.0000       0.739710        20.1285 
 380   0.0000       0.741245        20.1703 
 381   0.0000       0.744590        20.2613 
 382   0.0000       0.745517        20.2866 
 383   0.0000       0.751308        20.4441 
 384   0.0000       0.755692        20.5634 
 385   0.0000       0.758619        20.6431 
 386   0.0000       0.763985        20.7891 
 387   0.0000       0.766698        20.8629 
 388   0.0000       0.769283        20.9333 
 389   0.0000       0.771575        20.9956 
 390   0.0000       0.774745        21.0819 
 391   0.0000       0.776152        21.1202 
 392   0.0000       0.776666        21.1341 
 393   0.0000       0.781202        21.2576 
 394   0.0000       0.782803        21.3012 
 395   0.0000       0.784587        21.3497 
 396   0.0000       0.789015        21.4702 
 397   0.0000       0.790250        21.5038 
 398   0.0000       0.791335        21.5333 
 399   0.0000       0.796923        21.6854 
 400   0.0000       0.799236        21.7483 
 401   0.0000       0.800655        21.7869 
 402   0.0000       0.802410        21.8347 
 403   0.0000       0.807747        21.9799 
 404   0.0000       0.809831        22.0366 
 405   0.0000       0.813541        22.1376 
 406   0.0000       0.816613        22.2212 
 407   0.0000       0.818993        22.2859 
 408   0.0000       0.820931        22.3387 
 409   0.0000       0.825337        22.4586 
 410   0.0000       0.827349        22.5133 
 411   0.0000       0.832939        22.6654 
 412   0.0000       0.835256        22.7285 
 413   0.0000       0.836670        22.7670 
 414   0.0000       0.840197        22.8629 
 415   0.0000       0.843625        22.9562 
 416   0.0000       0.845164        22.9981 
 417   0.0000       0.849840        23.1253 
 418   0.0000       0.851638        23.1743 
 419   0.0000       0.856765        23.3138 
 420   0.0000       0.860255        23.4087 
 421   0.0000       0.862924        23.4814 
 422   0.0000       0.865754        23.5584 
 423   0.0000       0.868562        23.6348 
 424   0.0000       0.869264        23.6539 
 425   0.0000       0.876685        23.8558 
 426   0.0000       0.879697        23.9378 
 427   0.0000       0.883655        24.0455 
 428   0.0000       0.885385        24.0925 
 429   0.0000       0.892669        24.2908 
 430   0.0000       0.898512        24.4498 
 431   0.0000       0.900348        24.4997 
 432   0.0000       0.901329        24.5264 
 433   0.0000       0.907680        24.6992 
 434   0.0000       0.907929        24.7060 
 435   0.0000       0.915600        24.9147 
 436   0.0000       0.921956        25.0877 
 437   0.0000       0.927325        25.2338 
 438   0.0000       0.927932        25.2503 
 439   0.0000       0.930053        25.3080 
 440   0.0000       0.931952        25.3597 
 441   0.0000       0.933258        25.3952 
 442   0.0000       0.941123        25.6093 
 443   0.0000       0.943523        25.6746 
 444   0.0000       0.946240        25.7485 
 445   0.0000       0.946927        25.7672 
 446   0.0000       0.951117        25.8812 
 447   0.0000       0.958505        26.0823 
 448   0.0000       0.961077        26.1522 
 449   0.0000       0.963446        26.2167 
 450   0.0000       0.964568        26.2472 
 451   0.0000       0.969858        26.3912 
 452   0.0000       0.970806        26.4170 
 453   0.0000       0.972902        26.4740 
 454   0.0000       0.976404        26.5693 
 455   0.0000       0.981819        26.7167 
 456   0.0000       0.982717        26.7411 
 457   0.0000       0.989378        26.9223 
 458   0.0000       0.993377        27.0312 
 459   0.0000       0.996881        27.1265 
 460   0.0000       0.997776        27.1509 
 461   0.0000       1.002912        27.2906 
 462   0.0000       1.005495        27.3609 
 463   0.0000       1.008997        27.4562 
 464   0.0000       1.013102        27.5679 
 465   0.0000       1.016825        27.6692 
 466   0.0000       1.021742        27.8030 
 467   0.0000       1.025489        27.9050 
 468   0.0000       1.027620        27.9630 
 469   0.0000       1.038798        28.2671 
 470   0.0000       1.045321        28.4446 
 471   0.0000       1.050026        28.5727 
 472   0.0000       1.052385        28.6369 
 473   0.0000       1.054422        28.6923 
 474   0.0000       1.055795        28.7296 
 475   0.0000       1.064275        28.9604 
 476   0.0000       1.065995        29.0072 
 477   0.0000       1.072160        29.1749 
 478   0.0000       1.080155        29.3925 
 479   0.0000       1.084653        29.5149 
 480   0.0000       1.088095        29.6086 
 481   0.0000       1.093516        29.7561 
 482   0.0000       1.095367        29.8065 
 483   0.0000       1.096987        29.8505 
 484   0.0000       1.105448        30.0808 
 485   0.0000       1.106911        30.1206 
 486   0.0000       1.110099        30.2073 
 487   0.0000       1.118941        30.4479 
 488   0.0000       1.124212        30.5914 
 489   0.0000       1.128144        30.6983 
 490   0.0000       1.130861        30.7723 
 491   0.0000       1.135457        30.8974 
 492   0.0000       1.139300        31.0019 
 493   0.0000       1.143030        31.1034 
 494   0.0000       1.146824        31.2067 
 495   0.0000       1.147836        31.2342 
 496   0.0000       1.149904        31.2905 
 497   0.0000       1.156399        31.4672 
 498   0.0000       1.161418        31.6038 
 499   0.0000       1.165878        31.7252 
 500   0.0000       1.170268        31.8446 
 501   0.0000       1.174233        31.9525 
 502   0.0000       1.177650        32.0455 
 503   0.0000       1.178839        32.0778 
 504   0.0000       1.183139        32.1948 
 505   0.0000       1.184744        32.2385 
 506   0.0000       1.190423        32.3931 
 507   0.0000       1.195918        32.5426 
 508   0.0000       1.200426        32.6653 
 509   0.0000       1.205673        32.8080 
 510   0.0000       1.209443        32.9106 
 511   0.0000       1.210821        32.9481 
 512   0.0000       1.216115        33.0922 
 513   0.0000       1.217459        33.1288 
 514   0.0000       1.228520        33.4297 
 515   0.0000       1.230000        33.4700 
 516   0.0000       1.231790        33.5187 
[...]
 175   8.843     140.2   0.018638   0.017620  -80.815848  -78.695655     0.13 (  87->  97)    0.10 (  88->  97)    0.07 (  87->  96)
 176   8.847     140.1   0.016824   0.015469  -14.253186  -12.070754     0.11 (  87-> 105)    0.06 (  88->  97)    0.04 (  89->  97)
 177   8.861     139.9   0.022372   0.020274  -25.799931  -22.858185     0.04 (  88-> 111)    0.03 (  82->  97)    0.02 (  87-> 105)
 178   8.871     139.8   0.015724   0.013960   0.170288   0.195823     0.13 (  87-> 108)    0.08 (  90-> 116)    0.07 (  89-> 117)
 179   8.879     139.6   0.010318   0.008755   6.318950   6.059599     0.08 (  82->  97)    0.03 (  85->  96)    0.02 (  87-> 108)
 180   8.883     139.6   0.012294   0.012585  -11.922088  -12.192421     0.04 (  95-> 143)    0.03 (  95-> 140)    0.03 (  87-> 105)
 181   8.896     139.4   0.273180   0.259785  -73.957772  -66.023553     0.06 (  85-> 104)    0.03 (  94-> 104)    0.03 (  86-> 106)
 182   8.900     139.3   0.028763   0.026018  -5.141393  -4.251829     0.04 (  83->  97)    0.03 (  89-> 116)    0.03 (  95-> 111)
 183   8.912     139.1   0.088838   0.083326  -17.792330  -19.808107     0.04 (  94-> 134)    0.03 (  83->  97)    0.02 (  85-> 107)
 184   8.942     138.6   0.011299   0.011197  49.796982  49.027444     0.09 (  92-> 102)    0.07 (  92-> 103)    0.06 (  92-> 101)
 185   8.950     138.5   0.055711   0.050139  -24.255878  -23.602386     0.05 (  87-> 116)    0.05 (  92-> 102)    0.05 (  92-> 103)
 186   8.964     138.3   0.030805   0.028063  18.239882  20.140434     0.05 (  87-> 116)    0.04 (  88-> 108)    0.03 (  89-> 116)
 187   8.975     138.1   0.025901   0.023893  -11.325551  -10.437265     0.04 (  88-> 108)    0.03 (  92-> 125)    0.02 (  93-> 129)
 188   8.982     138.0   0.103598   0.095961  82.521833  75.880727     0.08 (  80-> 100)    0.06 (  76-> 100)    0.03 (  76-> 101)
 189   8.997     137.8   0.027979   0.027347  19.187088  19.418605     0.03 (  93-> 128)    0.03 (  93-> 127)    0.03 (  92-> 126)
 190   9.004     137.7   0.004622   0.004140  -9.512324  -7.761297     0.03 (  95-> 143)    0.03 (  83-> 106)    0.02 (  92-> 126)
 191   9.022     137.4   0.004242   0.004384  -5.619341  -3.903424     0.05 (  81->  98)    0.03 (  91-> 102)    0.03 (  92-> 102)
 192   9.035     137.2   0.025541   0.023049  -18.845635  -18.496508     0.09 (  81->  98)    0.05 (  91-> 102)    0.04 (  92-> 102)
 193   9.058     136.9   0.005056   0.004023   2.092764   2.026408     0.05 (  94-> 106)    0.03 (  77-> 100)    0.02 (  91-> 100)
 194   9.074     136.6   0.008096   0.006977  -0.913079  -0.522802     0.06 (  94-> 109)    0.04 (  95-> 136)    0.03 (  95-> 139)
 195   9.088     136.4   0.016097   0.016204  14.278666  14.596440     0.10 (  85-> 107)    0.08 (  94-> 107)    0.04 (  95-> 107)
 196   9.105     136.2   0.024605   0.021238  35.282717  32.791402     0.06 (  95-> 138)    0.04 (  94-> 138)    0.04 (  94-> 136)
 197   9.116     136.0   0.012126   0.010283  -26.970879  -24.948393     0.11 (  89-> 122)    0.06 (  89-> 124)    0.05 (  87-> 122)
 198   9.125     135.9   0.010940   0.010227   5.001743   2.540366     0.05 (  94-> 138)    0.03 (  95-> 138)    0.02 (  94-> 110)
 199   9.132     135.8   0.065449   0.060337  40.484138  39.279175     0.07 (  94-> 138)    0.06 (  95-> 138)    0.03 (  90-> 122)
 200   9.136     135.7   0.015642   0.014491  15.024256  15.107975     0.13 (  90-> 124)    0.10 (  90-> 122)    0.06 (  90-> 121)
 201   9.150     135.5   0.008524   0.008776  -3.533929  -3.585785     0.30 (  93-> 105)    0.10 (  93-> 104)    0.04 (  93-> 103)
 202   9.183     135.0   0.016184   0.013321  22.549283  22.190635     0.05 (  95-> 144)    0.04 (  81-> 102)    0.04 (  93-> 105)
 203   9.191     134.9   0.001723   0.001228  -4.233805  -3.806977     0.04 (  93-> 105)    0.04 (  81-> 102)    0.02 (  91-> 108)
 204   9.195     134.8   0.000225   0.000478  -2.866741   0.056874     0.03 (  81-> 102)    0.03 (  94-> 138)    0.02 (  95-> 108)
 205   9.200     134.8   0.000924   0.000783   0.027363   0.142663     0.10 (  69->  98)    0.06 (  68->  98)    0.04 (  67->  98)
 206   9.217     134.5   0.001230   0.000997   2.892566   1.110853     0.05 (  95-> 145)    0.03 (  76-> 100)    0.02 (  80-> 100)
 207   9.229     134.3   0.025917   0.023838  -6.100769  -5.533010     0.04 (  76-> 100)    0.03 (  95-> 145)    0.03 (  71-> 100)
 208   9.231     134.3   0.008427   0.007267  11.700505  10.589713     0.04 (  66->  98)    0.03 (  91->  98)    0.03 (  81-> 101)
 209   9.249     134.1   0.003934   0.003463  13.570501  11.597302     0.05 (  95-> 142)    0.04 (  94-> 108)    0.04 (  95-> 145)
 210   9.252     134.0   0.039090   0.033917  -12.547382  -10.307423     0.04 (  86-> 100)    0.03 (  81-> 102)    0.03 (  85-> 106)
 211   9.262     133.9   0.004433   0.004103   9.036492   8.469265     0.03 (  76-> 104)    0.02 (  71-> 104)    0.02 (  88-> 120)
 212   9.265     133.8   0.000191   0.000274  -1.238451  -1.303172     0.07 (  76-> 104)    0.05 (  71-> 104)    0.04 (  80-> 104)
 213   9.285     133.5   0.002848   0.002231  -3.445335  -2.922707     0.11 (  68->  99)    0.06 (  66->  96)    0.05 (  66->  97)
 214   9.303     133.3   0.014465   0.013595  32.751542  31.143334     0.16 (  91->  99)    0.09 (  86->  99)    0.07 (  81->  99)
 215   9.313     133.1   0.016766   0.015537  -52.588238  -50.471440     0.13 (  91->  99)    0.08 (  86->  99)    0.07 (  81->  99)
 216   9.315     133.1   0.020382   0.017387  -17.147543  -15.815011     0.06 (  95-> 122)    0.05 (  94-> 142)    0.05 (  95-> 142)
 217   9.334     132.8   0.014725   0.014339  -2.272999  -2.254582     0.03 (  92-> 105)    0.02 (  93-> 137)    0.02 (  93-> 126)
 218   9.344     132.7   0.006545   0.005930  -2.751629  -2.356049     0.13 (  90-> 100)    0.04 (  90->  97)    0.02 (  95-> 122)
 219   9.349     132.6   0.018950   0.018028  40.875943  39.711582     0.07 (  90-> 100)    0.03 (  95-> 116)    0.02 (  93-> 137)
 220   9.365     132.4   0.005893   0.005453   3.778366   4.678734     0.06 (  92-> 105)    0.05 (  90-> 100)    0.03 (  85-> 106)
 221   9.378     132.2   0.002014   0.002133   0.995669   1.084074     0.06 (  90-> 100)    0.04 (  92-> 105)    0.03 (  92-> 134)
 222   9.384     132.1   0.031853   0.029641  27.875925  26.008075     0.05 (  92-> 105)    0.03 (  90-> 100)    0.03 (  91-> 104)
 223   9.397     131.9   0.003902   0.003202  -8.464839  -7.796893     0.04 (  92-> 134)    0.03 (  92-> 137)    0.03 (  93-> 134)
 224   9.401     131.9   0.011972   0.010099  -24.684120  -22.605689     0.03 (  83-> 104)    0.03 (  85-> 104)    0.03 (  95-> 142)
 225   9.405     131.8   0.015929   0.013823  -20.734504  -21.519939     0.05 (  95-> 137)    0.03 (  94-> 107)    0.03 (  92-> 137)
 226   9.425     131.6   0.013258   0.011383  -11.846332  -15.312935     0.04 (  95-> 119)    0.03 (  88-> 120)    0.03 (  94-> 137)
 227   9.429     131.5   0.029825   0.028580  -19.842991  -20.073237     0.03 (  84-> 106)    0.03 (  83-> 104)    0.03 (  77-> 100)
 228   9.431     131.5   0.004350   0.003152  -3.173521  -2.725537     0.08 (  95-> 146)    0.07 (  63->  96)    0.05 (  88-> 116)
 229   9.453     131.2   0.009480   0.009125  -2.347073  -2.147997     0.11 (  63->  96)    0.06 (  89-> 100)    0.03 (  95-> 142)
 230   9.465     131.0   0.007254   0.006787   1.469501   2.415006     0.12 (  89-> 100)    0.04 (  63->  96)    0.03 (  94-> 107)
 231   9.470     130.9   0.022625   0.020515  -14.250919  -13.788682     0.13 (  89-> 100)    0.09 (  94-> 107)    0.05 (  86-> 110)
 232   9.487     130.7   0.008777   0.007103  15.636929  13.517021     0.04 (  93-> 114)    0.02 (  95-> 121)    0.02 (  92-> 137)
 233   9.512     130.3   0.004358   0.004102   5.670465   4.543827     0.03 (  94-> 116)    0.03 (  87-> 100)    0.02 (  91-> 113)
 234   9.513     130.3   0.001624   0.001449   3.127479   2.973687     0.02 (  86->  98)    0.02 (  94-> 107)    0.02 (  94-> 112)
 235   9.520     130.2   0.015246   0.013439  23.992767  22.920529     0.07 (  87-> 100)    0.06 (  62->  96)    0.04 (  88-> 100)
 236   9.536     130.0   0.022988   0.018640  -9.137406  -8.797211     0.07 (  62->  96)    0.03 (  93-> 137)    0.02 (  76-> 104)
 237   9.544     129.9   0.000535   0.000605  -0.039294   0.110978     0.05 (  86->  98)    0.03 (  89-> 100)    0.03 (  87-> 100)
 238   9.546     129.9   0.038090   0.034160   1.316107   1.798805     0.07 (  88-> 100)    0.07 (  87-> 100)    0.05 (  62->  96)
 239   9.552     129.8   0.014485   0.012804  -1.227073  -2.810379     0.03 (  95-> 146)    0.03 (  94-> 107)    0.02 (  92-> 137)
 240   9.566     129.6   0.015481   0.012588  22.989059  20.991808     0.08 (  68->  99)    0.05 (  62->  96)    0.04 (  91-> 105)
 241   9.569     129.6   0.004005   0.003169  16.453660  15.308365     0.10 (  95-> 146)    0.04 (  94-> 146)    0.04 (  68->  99)
 242   9.583     129.4   0.003891   0.003385  -5.759496  -5.536477     0.03 (  94-> 114)    0.03 (  89-> 119)    0.02 (  91-> 112)
 243   9.595     129.2   0.006639   0.006140   5.265095   3.030331     0.02 (  95-> 109)    0.02 (  89-> 116)    0.02 (  88-> 100)
 244   9.599     129.2   0.018454   0.016045  -22.938206  -22.360069     0.03 (  94-> 111)    0.03 (  91-> 115)    0.02 (  93-> 137)
 245   9.611     129.0   0.003105   0.002811  15.875272  15.056878     0.04 (  89-> 115)    0.04 (  60->  96)    0.04 (  78->  96)
 246   9.617     128.9   0.022387   0.019128  33.484035  30.778817     0.04 (  88-> 100)    0.03 (  61->  96)    0.02 (  68->  99)
 247   9.631     128.7   0.031957   0.027516  -8.889999  -8.553630     0.08 (  61->  96)    0.05 (  87-> 115)    0.04 (  60->  96)
 248   9.637     128.6   0.009178   0.009308  -44.726077  -43.755514     0.03 (  88-> 121)    0.03 (  61->  96)    0.02 (  80-> 106)
 249   9.647     128.5   0.001375   0.001152   7.732405   7.376667     0.06 (  86-> 113)    0.02 (  61->  96)    0.02 (  85-> 110)
 250   9.652     128.5   0.002404   0.002275  -3.881592  -3.915802     0.21 (  88-> 100)    0.17 (  87-> 100)    0.06 (  88->  97)
 251   9.658     128.4   0.005261   0.004628  -1.150145  -4.497161     0.03 (  88-> 111)    0.03 (  90-> 117)    0.02 (  87-> 130)
 252   9.661     128.3   0.003215   0.001833  13.210089  10.475624     0.03 (  95-> 149)    0.02 (  95-> 141)    0.02 (  95-> 127)
 253   9.669     128.2   0.009187   0.007867  -2.861625  -3.048261     0.04 (  93-> 114)    0.03 (  95-> 142)    0.02 (  94-> 119)
 254   9.685     128.0   0.039167   0.031395  -55.366254  -49.845824     0.03 (  93-> 112)    0.03 (  93-> 114)    0.03 (  95-> 141)
 255   9.692     127.9   0.009315   0.007853  -2.992441  -2.120954     0.03 (  95-> 148)    0.02 (  62->  96)    0.02 (  61->  96)
 256   9.708     127.7   0.026151   0.022563  35.312347  34.528384     0.04 (  61->  96)    0.03 (  82->  98)    0.03 (  86-> 113)
 257   9.715     127.6   0.022287   0.018585  33.957494  30.873464     0.06 (  64->  99)    0.04 (  86->  99)    0.04 (  66->  99)
 258   9.717     127.6   0.001488   0.001241  -9.342066  -8.516441     0.11 (  90-> 130)    0.06 (  87-> 121)    0.05 (  87-> 116)
 259   9.724     127.5   0.008692   0.008033  30.716117  29.787318     0.07 (  86->  99)    0.07 (  64->  99)    0.04 (  66->  99)
 260   9.735     127.4   0.010981   0.009077   8.116774   7.349646     0.03 (  90-> 130)    0.03 (  94-> 120)    0.02 (  95-> 148)
 261   9.742     127.3   0.019390   0.016730  -21.994762  -19.226535     0.06 (  82->  98)    0.05 (  91-> 102)    0.05 (  86->  98)
 262   9.752     127.1   0.013661   0.010415   2.325443   0.518663     0.06 (  94-> 119)    0.04 (  90-> 121)    0.03 (  64->  98)
 263   9.756     127.1   0.012580   0.010202  33.407523  30.295203     0.04 (  94-> 120)    0.04 (  88-> 117)    0.02 (  91-> 102)
 264   9.768     126.9   0.012018   0.010014   3.585891   3.610600     0.15 (  75->  97)    0.13 (  75->  96)    0.11 (  79->  96)
 265   9.773     126.9   0.018421   0.015828  -45.952295  -39.634027     0.05 (  89-> 109)    0.05 (  90-> 112)    0.04 (  90-> 121)
 266   9.780     126.8   0.008039   0.006404  -23.733403  -20.286649     0.05 (  68->  98)    0.04 (  91-> 103)    0.04 (  91-> 102)
 267   9.783     126.7   0.040912   0.033035  29.778869  26.131147     0.02 (  83-> 114)    0.02 (  95-> 127)    0.02 (  95-> 141)
 268   9.795     126.6   0.006202   0.005703   8.557764   8.921797     0.10 (  85->  98)    0.08 (  64->  98)    0.06 (  86->  98)
 269   9.799     126.5   0.011371   0.009636  38.244198  35.057715     0.05 (  64->  98)    0.05 (  79->  96)    0.04 (  85->  98)
 270   9.810     126.4   0.015021   0.012751  -0.840232   0.372345     0.06 (  85->  98)    0.02 (  95-> 149)    0.02 (  84->  98)
 271   9.812     126.4   0.005579   0.006021  -28.628774  -29.730423     0.09 (  85->  98)    0.03 (  83->  98)    0.02 (  64->  98)
 272   9.820     126.3   0.018854   0.017534   4.857475   4.695166     0.06 (  89-> 111)    0.03 (  87-> 130)    0.02 (  95-> 148)
 273   9.828     126.2   0.015278   0.013449  -3.927561  -3.723959     0.06 (  85->  98)    0.03 (  67->  97)    0.03 (  61->  96)
 274   9.833     126.1   0.004205   0.003626  -6.579279  -6.019234     0.04 (  64->  98)    0.03 (  85->  98)    0.02 (  83->  98)
 275   9.840     126.0   0.004844   0.004033  -9.285438  -8.181342     0.11 (  84->  99)    0.06 (  86->  99)    0.05 (  83->  99)
 276   9.848     125.9   0.004470   0.004529   1.711157   2.042004     0.10 (  84->  99)    0.04 (  86->  99)    0.04 (  83->  99)
 277   9.851     125.9   0.009496   0.008097   3.381512   3.961707     0.06 (  84->  99)    0.03 (  64->  98)    0.02 (  86->  99)
 278   9.859     125.8   0.033489   0.029298  21.301876  19.747260     0.04 (  94-> 131)    0.03 (  91-> 131)    0.03 (  95-> 151)
 279   9.868     125.6   0.004063   0.004030  -5.336158  -4.757437     0.05 (  95-> 123)    0.03 (  92-> 114)    0.03 (  94-> 131)
 280   9.887     125.4   0.004793   0.004454  -8.342699  -7.456505     0.04 (  94-> 114)    0.03 (  95-> 114)    0.03 (  95-> 151)
 281   9.892     125.3   0.003333   0.003018  -0.310404  -0.335670     0.28 (  90-> 101)    0.19 (  90-> 103)    0.09 (  90-> 100)
 282   9.899     125.3   0.002532   0.002155   1.150787   0.784475     0.08 (  78->  96)    0.08 (  60->  96)    0.06 (  79->  99)
 283   9.904     125.2   0.001262   0.000950   4.654787   4.589925     0.04 (  86-> 118)    0.03 (  95-> 150)    0.03 (  91-> 118)
 284   9.914     125.1   0.005322   0.003980  -1.552937  -1.811319     0.09 (  93-> 108)    0.05 (  95-> 148)    0.02 (  94-> 109)
 285   9.915     125.0   0.002596   0.002088  -2.989688  -2.579959     0.06 (  89-> 130)    0.06 (  87-> 111)    0.05 (  87-> 122)
 286   9.928     124.9   0.015508   0.012416  21.441295  20.258306     0.03 (  94-> 131)    0.03 (  92-> 112)    0.02 (  84-> 100)
 287   9.932     124.8   0.013338   0.012690  11.947569  12.020170     0.07 (  95-> 151)    0.03 (  91-> 106)    0.03 (  95-> 125)
 288   9.950     124.6   0.018713   0.017085  10.770413   8.537869     0.06 (  85-> 100)    0.05 (  82-> 100)    0.05 (  83-> 100)
 289   9.959     124.5   0.019798   0.016124  -43.724696  -39.545237     0.03 (  82-> 100)    0.03 (  92-> 141)    0.03 (  93-> 112)
 290   9.969     124.4   0.010926   0.009649   3.884196   3.728264     0.04 (  90-> 133)    0.02 (  90-> 134)    0.02 (  91-> 112)
 291   9.977     124.3   0.002969   0.002227  -7.968076  -5.941902     0.07 (  82-> 100)    0.03 (  94-> 113)    0.02 (  94-> 131)
 292   9.986     124.2   0.006153   0.005851  -11.186568  -10.851211     0.05 (  93-> 108)    0.04 (  90-> 133)    0.03 (  89-> 128)
 293   9.990     124.1   0.006761   0.005839  -12.878647  -14.359925     0.06 (  59->  96)    0.04 (  55->  96)    0.03 (  61->  96)

sTD-DFT done

Total run time:       50.945 sec

           *** ORCA-CIS/TD-DFT FINISHED WITHOUT ERROR ***


-------------------------------------------------------------------------------
                          DFT DISPERSION CORRECTION                            
                                                                               
                              DFTD3 V3.1  Rev 1                                
                              USING zero damping                               
-------------------------------------------------------------------------------
The omegaB97X-D3 functional is recognized. Fit by Chai et al.
Active option DFTDOPT                   ...         3   

molecular C6(AA) [au] = 61912.796387 


            DFT-D V3
 parameters
 s6 scaling factor         :     1.0000 
 rs6 scaling factor        :     1.2810 
 s8 scaling factor         :     1.0000 
 rs8 scaling factor        :     1.0940 
 Damping factor alpha6     :    14.0000 
 Damping factor alpha8     :    16.0000 
 ad hoc parameters k1-k3   :    16.0000     1.3333    -4.0000 

 Edisp/kcal,au: -20.360002690961  -0.032445726098 
 E6   /kcal   :  -9.972319054 
 E8   /kcal   : -10.387683637 
 % E8         :  51.020050415 

-------------------------   ----------------
Dispersion correction           -0.032445726
-------------------------   ----------------


-------------------------   --------------------
FINAL SINGLE POINT ENERGY     -1723.758764951215
-------------------------   --------------------


                            ***************************************
                            *     ORCA property calculations      *
                            ***************************************

                                    ---------------------
                                    Active property flags
                                    ---------------------
   (+) Dipole Moment
   (+) Quadrupole Moment


------------------------------------------------------------------------------
                       ORCA ELECTRIC PROPERTIES CALCULATION
------------------------------------------------------------------------------

Dipole Moment Calculation                       ... on
Quadrupole Moment Calculation                   ... on
Polarizability Calculation                      ... off
GBWName                                         ... total_job2.gbw
Electron density file                           ... total_job2.scfp.tmp

-------------
DIPOLE MOMENT
-------------
                                X             Y             Z
Electronic contribution:     16.82018      -0.57021      -4.26942
Nuclear contribution   :    -16.56352       0.31698       4.57588
                        -----------------------------------------
Total Dipole Moment    :      0.25666      -0.25323       0.30647
                        -----------------------------------------
Magnitude (a.u.)       :      0.47320
Magnitude (Debye)      :      1.20278


------------------------
QUADRUPOLE MOMENT (A.U.)
------------------------

                XX           YY           ZZ           XY           XZ           YZ
  NUC     34107.14150   2995.15817   3261.49638   -990.05372   -193.77263  -1922.43472
  EL     -34258.26703  -3164.70578  -3428.44678    983.85777    201.74807   1907.84804
  TOT      -151.12553   -169.54761   -166.95041     -6.19595      7.97544    -14.58668

--------------------------------------------------------------------------
[[19672,1],0]: A high-performance Open MPI point-to-point messaging module
was unable to find any relevant network interfaces:

Module: OpenFabrics (openib)
  Host: cx1-105-6-2

Another transport will be used instead, although this may result in
lower performance.
--------------------------------------------------------------------------

Timings for individual modules:

Sum of individual times         ...      310.467 sec (=   5.174 min)
GTO integral calculation        ...       10.035 sec (=   0.167 min)   3.2 %
SCF iterations                  ...      245.726 sec (=   4.095 min)  79.1 %
CIS module                      ...       54.707 sec (=   0.912 min)  17.6 %



                             ****ORCA TERMINATED NORMALLY****
TOTAL RUN TIME: 0 days 0 hours 19 minutes 14 seconds 825 msec
