
                                 *****************
                                 * O   R   C   A *
                                 *****************

           --- An Ab Initio, DFT and Semiempirical electronic structure package ---

                  #######################################################
                  #                        -***-                        #
                  #  Department of molecular theory and spectroscopy    #
                  #              Directorship: Frank Neese              #
                  # Max Planck Institute for Chemical Energy Conversion #
                  #                  D-45470 Muelheim/Ruhr              #
                  #                       Germany                       #
                  #                                                     #
                  #                  All rights reserved                #
                  #                        -***-                        #
                  #######################################################


                         Program Version 4.0.0 -  RELEASE  -


 With contributions from (in alphabetic order):
   Daniel Aravena         : Magnetic Properties
   Michael Atanasov       : Ab Initio Ligand Field Theory
   Ute Becker             : Parallelization
   Martin Brehm           : Molecular dynamics
   Dmytro Bykov           : SCF Hessian
   Vijay G. Chilkuri      : MRCI spin determinant printing
   Dipayan Datta          : RHF DLPNO-CCSD density
   Achintya Kumar Dutta   : EOM-CC, STEOM-CC
   Dmitry Ganyushin       : Spin-Orbit,Spin-Spin,Magnetic field MRCI
   Yang Guo               : DLPNO-NEVPT2, CIM, IAO-localization
   Andreas Hansen         : Spin unrestricted coupled pair/coupled cluster methods
   Lee Huntington         : MR-EOM, pCC
   Robert Izsak           : Overlap fitted RIJCOSX, COSX-SCS-MP3, EOM
   Christian Kollmar      : KDIIS, OOCD, Brueckner-CCSD(T), CCSD density
   Simone Kossmann        : Meta GGA functionals, TD-DFT gradient, OOMP2, MP2 Hessian
   Martin Krupicka        : AUTO-CI
   Dagmar Lenk            : GEPOL surface
   Dimitrios Liakos       : Extrapolation schemes; parallel MDCI
   Dimitrios Manganas     : ROCIS; embedding schemes
   Dimitrios Pantazis     : SARC Basis sets
   Taras Petrenko         : DFT Hessian,TD-DFT gradient, ASA, ECA, R-Raman, ABS, FL, XAS/XES, NRVS
   Peter Pinski           : DLPNO-MP2
   Christoph Reimann      : Effective Core Potentials
   Marius Retegan         : Local ZFS, SOC
   Christoph Riplinger    : Optimizer, TS searches, QM/MM, DLPNO-CCSD(T), (RO)-DLPNO pert. Triples
   Tobias Risthaus        : Range-separated hybrids, TD-DFT gradient, RPA, STAB
   Michael Roemelt        : Restricted open shell CIS
   Masaaki Saitow         : Open-shell DLPNO
   Barbara Sandhoefer     : DKH picture change effects
   Kantharuban Sivalingam : CASSCF convergence, NEVPT2, FIC-MRCI
   Georgi Stoychev        : AutoAux
   Boris Wezisla          : Elementary symmetry handling
   Frank Wennmohs         : Technical directorship


 We gratefully acknowledge several colleagues who have allowed us to
 interface, adapt or use parts of their codes:
   Stefan Grimme, W. Hujo, H. Kruse,             : VdW corrections, initial TS optimization,
                  C. Bannwarth                     DFT functionals, gCP, sTDA/sTD-DF
   Ed Valeev                                     : LibInt (2-el integral package), F12 methods
   Garnet Chan, S. Sharma, J. Yang, R. Olivares  : DMRG
   Ulf Ekstrom                                   : XCFun DFT Library
   Mihaly Kallay                                 : mrcc  (arbitrary order and MRCC methods)
   Jiri Pittner, Ondrej Demel                    : Mk-CCSD
   Frank Weinhold                                : gennbo (NPA and NBO analysis)
   Christopher J. Cramer and Donald G. Truhlar   : smd solvation model


 Your calculation uses the libint2 library for the computation of 2-el integrals
 For citations please refer to: http://libint.valeyev.net

 This ORCA versions uses:
   CBLAS   interface :  Fast vector & matrix operations
   LAPACKE interface :  Fast linear algebra routines
   SCALAPACK package :  Parallel linear algebra routines


Your calculation utilizes the atom-pairwise dispersion correction
with the zero-damping scheme (D30)
Cite in your paper:
S.Grimme, J.Antony, S.Ehrlich and H.Krieg, J.Chem.Phys., 132, (2010), 154104 
   

XCFun DFT library Copyright 2009-2010 Ulf Ekstrom and contributors.
See http://admol.org/xcfun for more information. This is free soft-
ware; see the source code for copying conditions. There is ABSOLUTELY
NO WARRANTY; not even for MERCHANTABILITY or FITNESS FOR A PARTICULAR
PURPOSE. For details see the documentation. Scientific users of this 
library should cite U. Ekstrom, L. Visscher, R. Bast, A. J. Thorvald-
sen and K. Ruud; J.Chem.Theor.Comp. 2010, DOI: 10.1021/ct100117s
XCFun Version 0.99 
Your calculation utilizes the basis: def2-TZVP
   F. Weigend and R. Ahlrichs, Phys. Chem. Chem. Phys. 7, 3297 (2005).

Your calculation utilizes the auxiliary basis: def2/J
   F. Weigend, Phys. Chem. Chem. Phys. 8, 1057 (2006).

================================================================================
                                        WARNINGS
                       Please study these warnings very carefully!
================================================================================

Warning: TCutStore was < 0. Adjusted to Thresh (uncritical)
INFO   : Checking CIS options ...

WARNING: CIS/ROCIS methods need fully converged wavefunctions
  ===> : Setting SCFConvForced true
         You can overwrite this default with %scf ConvForced false 


INFO   : the flag for use of LIBINT has been found!

Your calculation utilizes the atom-pairwise dispersion correction
with the zero-damping scheme (D30)
Cite in your paper:
S.Grimme, J.Antony, S.Ehrlich and H.Krieg, J.Chem.Phys., 132, (2010), 154104 
   

XCFun DFT library Copyright 2009-2010 Ulf Ekstrom and contributors.
See http://admol.org/xcfun for more information. This is free soft-
ware; see the source code for copying conditions. There is ABSOLUTELY
NO WARRANTY; not even for MERCHANTABILITY or FITNESS FOR A PARTICULAR
PURPOSE. For details see the documentation. Scientific users of this 
library should cite U. Ekstrom, L. Visscher, R. Bast, A. J. Thorvald-
sen and K. Ruud; J.Chem.Theor.Comp. 2010, DOI: 10.1021/ct100117s
XCFun Version 0.99 
Your calculation utilizes the basis: def2-TZVP
   F. Weigend and R. Ahlrichs, Phys. Chem. Chem. Phys. 7, 3297 (2005).

Your calculation utilizes the auxiliary basis: def2/J
   F. Weigend, Phys. Chem. Chem. Phys. 8, 1057 (2006).

================================================================================
                                        WARNINGS
                       Please study these warnings very carefully!
================================================================================

INFO   : Checking CIS options ...

INFO   : the flag for use of LIBINT has been found!

================================================================================
                                       INPUT FILE
================================================================================
NAME = total.inp
|  1> # 
|  2> !wB97X-D3 def2-TZVP def2/J RIJCOSX Grid5 FinalGrid6 TightSCF
|  3> %pal 
|  4>  nprocs 24
|  5> end
|  6> %tddft
|  7>   Mode sTDDFT
|  8>   nroots 2
|  9>   Ethresh 10.0
| 10>   maxcore 5000
| 11>   triplets true
| 12> end
| 13> * xyz 0 1 
| 14> C -4.81419023 2.69092429 -1.21561744
| 15> C -3.93824956 1.69530028 -0.79105446
| 16> C -4.45414863 0.43492697 -0.43288035
| 17> C -5.85736647 0.22310211 -0.54270992
| 18> C -6.74281507 1.22664046 -0.96472903
| 19> C -6.19955553 2.46500339 -1.29603028
| 20> C -3.88048793 -0.82441390 0.01665361
| 21> C -4.97131672 -1.73693776 0.12771751
| 22> N -6.14644484 -1.08418936 -0.19258733
| 23> C -4.81005677 -3.08283864 0.48907211
| 24> C -3.51374788 -3.53015655 0.73338189
| 25> C -2.42217447 -2.65688280 0.63986099
| 26> C -2.57223109 -1.29822278 0.30417619
| 27> H -1.42656250 -3.03280488 0.85962557
| 28> H -7.06660636 -1.50684068 -0.20450410
| 29> H -3.34332602 -4.56701439 1.00828811
| 30> H -2.87363658 1.90013696 -0.74678643
| 31> H -7.81094488 1.04001172 -1.03586892
| 32> H -6.85381880 3.26657503 -1.62803600
| 33> H -4.42009387 3.66495245 -1.49163432
| 34> C 4.27678606 0.73402098 -0.07866059
| 35> N 3.88060854 1.98511955 0.20102339
| 36> O 2.53272798 1.94800735 0.34015201
| 37> C 2.07984285 0.69517703 0.15224981
| 38> C 3.14649894 -0.13568325 -0.12073181
| 39> C 0.64874132 0.44679262 0.25963343
| 40> N -0.22511219 1.42408827 0.54265946
| 41> O -1.45522582 0.84776783 0.56179788
| 42> C -1.36645108 -0.46317187 0.29333288
| 43> C -0.03641520 -0.79138170 0.09868708
| 44> H 0.38203198 -1.75708228 -0.14448271
| 45> H 3.13416423 -1.19697012 -0.32026224
| 46> N 6.54783848 2.64396652 0.03500957
| 47> C 6.75174447 1.36830673 -0.22776189
| 48> C 8.13424954 0.92577086 -0.46140403
| 49> N 9.09782915 1.83113614 -0.39525326
| 50> S 8.25100791 3.46050607 0.00410850
| 51> C 8.34897028 -0.46627884 -0.74739900
| 52> C 7.26198704 -1.30075271 -0.78684775
| 53> N 5.95730153 -0.90125352 -0.56976457
| 54> C 5.68159981 0.37033304 -0.29984088
| 55> H 7.39733338 -2.36471167 -1.00234369
| 56> H -5.66314256 -3.75100842 0.56521045
| 57> H 9.35295759 -0.83997052 -0.92694941
| 58> *
| 59> $new_job
| 60> # 
| 61> !wB97X-D3 def2-TZVP def2/J RIJCOSX Grid5 FinalGrid6 TightSCF
| 62> %pal 
| 63>  nprocs 24
| 64> end
| 65> %elprop
| 66>    dipole     true
| 67>    quadrupole true
| 68> end
| 69> %tddft
| 70>   Mode sTDDFT
| 71>   nroots 2
| 72>   Ethresh 10.0
| 73>   maxcore 5000
| 74> end
| 75> * xyz 0 1 
| 76> C -4.81419023 2.69092429 -1.21561744
| 77> C -3.93824956 1.69530028 -0.79105446
| 78> C -4.45414863 0.43492697 -0.43288035
| 79> C -5.85736647 0.22310211 -0.54270992
| 80> C -6.74281507 1.22664046 -0.96472903
| 81> C -6.19955553 2.46500339 -1.29603028
| 82> C -3.88048793 -0.82441390 0.01665361
| 83> C -4.97131672 -1.73693776 0.12771751
| 84> N -6.14644484 -1.08418936 -0.19258733
| 85> C -4.81005677 -3.08283864 0.48907211
| 86> C -3.51374788 -3.53015655 0.73338189
| 87> C -2.42217447 -2.65688280 0.63986099
| 88> C -2.57223109 -1.29822278 0.30417619
| 89> H -1.42656250 -3.03280488 0.85962557
| 90> H -7.06660636 -1.50684068 -0.20450410
| 91> H -3.34332602 -4.56701439 1.00828811
| 92> H -2.87363658 1.90013696 -0.74678643
| 93> H -7.81094488 1.04001172 -1.03586892
| 94> H -6.85381880 3.26657503 -1.62803600
| 95> H -4.42009387 3.66495245 -1.49163432
| 96> C 4.27678606 0.73402098 -0.07866059
| 97> N 3.88060854 1.98511955 0.20102339
| 98> O 2.53272798 1.94800735 0.34015201
| 99> C 2.07984285 0.69517703 0.15224981
|100> C 3.14649894 -0.13568325 -0.12073181
|101> C 0.64874132 0.44679262 0.25963343
|102> N -0.22511219 1.42408827 0.54265946
|103> O -1.45522582 0.84776783 0.56179788
|104> C -1.36645108 -0.46317187 0.29333288
|105> C -0.03641520 -0.79138170 0.09868708
|106> H 0.38203198 -1.75708228 -0.14448271
|107> H 3.13416423 -1.19697012 -0.32026224
|108> N 6.54783848 2.64396652 0.03500957
|109> C 6.75174447 1.36830673 -0.22776189
|110> C 8.13424954 0.92577086 -0.46140403
|111> N 9.09782915 1.83113614 -0.39525326
|112> S 8.25100791 3.46050607 0.00410850
|113> C 8.34897028 -0.46627884 -0.74739900
|114> C 7.26198704 -1.30075271 -0.78684775
|115> N 5.95730153 -0.90125352 -0.56976457
|116> C 5.68159981 0.37033304 -0.29984088
|117> H 7.39733338 -2.36471167 -1.00234369
|118> H -5.66314256 -3.75100842 0.56521045
|119> H 9.35295759 -0.83997052 -0.92694941
|120> *
|121> 
|122>                          ****END OF INPUT****
================================================================================


                 $$$$$$$$$$$$$$$$$$$$$$$$$$$$$$$$$$$$$$$$$$$$$$ 
                 $ THERE ARE  2 JOBS TO BE PROCESSED THIS RUN $
                 $$$$$$$$$$$$$$$$$$$$$$$$$$$$$$$$$$$$$$$$$$$$$$ 




                 $$$$$$$$$$$$$$$$  JOB NUMBER  1 $$$$$$$$$$$$$$


                       ****************************
                       * Single Point Calculation *
                       ****************************

---------------------------------
CARTESIAN COORDINATES (ANGSTROEM)
---------------------------------
  C     -4.814190    2.690924   -1.215617
  C     -3.938250    1.695300   -0.791054
  C     -4.454149    0.434927   -0.432880
  C     -5.857366    0.223102   -0.542710
  C     -6.742815    1.226640   -0.964729
  C     -6.199556    2.465003   -1.296030
  C     -3.880488   -0.824414    0.016654
  C     -4.971317   -1.736938    0.127718
  N     -6.146445   -1.084189   -0.192587
  C     -4.810057   -3.082839    0.489072
  C     -3.513748   -3.530157    0.733382
  C     -2.422174   -2.656883    0.639861
  C     -2.572231   -1.298223    0.304176
  H     -1.426562   -3.032805    0.859626
  H     -7.066606   -1.506841   -0.204504
  H     -3.343326   -4.567014    1.008288
  H     -2.873637    1.900137   -0.746786
  H     -7.810945    1.040012   -1.035869
  H     -6.853819    3.266575   -1.628036
  H     -4.420094    3.664952   -1.491634
  C      4.276786    0.734021   -0.078661
  N      3.880609    1.985120    0.201023
  O      2.532728    1.948007    0.340152
  C      2.079843    0.695177    0.152250
  C      3.146499   -0.135683   -0.120732
  C      0.648741    0.446793    0.259633
  N     -0.225112    1.424088    0.542659
  O     -1.455226    0.847768    0.561798
  C     -1.366451   -0.463172    0.293333
  C     -0.036415   -0.791382    0.098687
  H      0.382032   -1.757082   -0.144483
  H      3.134164   -1.196970   -0.320262
  N      6.547838    2.643967    0.035010
  C      6.751744    1.368307   -0.227762
  C      8.134250    0.925771   -0.461404
  N      9.097829    1.831136   -0.395253
  S      8.251008    3.460506    0.004109
  C      8.348970   -0.466279   -0.747399
  C      7.261987   -1.300753   -0.786848
  N      5.957302   -0.901254   -0.569765
  C      5.681600    0.370333   -0.299841
  H      7.397333   -2.364712   -1.002344
  H     -5.663143   -3.751008    0.565210
  H      9.352958   -0.839971   -0.926949

----------------------------
CARTESIAN COORDINATES (A.U.)
----------------------------
  NO LB      ZA    FRAG     MASS         X           Y           Z
   0 C     6.0000    0    12.011   -9.097501    5.085110   -2.297184
   1 C     6.0000    0    12.011   -7.442213    3.203653   -1.494876
   2 C     6.0000    0    12.011   -8.417121    0.821893   -0.818025
   3 C     6.0000    0    12.011  -11.068818    0.421602   -1.025573
   4 C     6.0000    0    12.011  -12.742074    2.318015   -1.823074
   5 C     6.0000    0    12.011  -11.715462    4.658181   -2.449142
   6 C     6.0000    0    12.011   -7.333059   -1.557916    0.031471
   7 C     6.0000    0    12.011   -9.394427   -3.282337    0.241351
   8 N     7.0000    0    14.007  -11.615097   -2.048821   -0.363937
   9 C     6.0000    0    12.011   -9.089690   -5.825721    0.924212
  10 C     6.0000    0    12.011   -6.640021   -6.671029    1.385891
  11 C     6.0000    0    12.011   -4.577246   -5.020781    1.209162
  12 C     6.0000    0    12.011   -4.860812   -2.453286    0.574810
  13 H     1.0000    0     1.008   -2.695812   -5.731171    1.624457
  14 H     1.0000    0     1.008  -13.353951   -2.847516   -0.386457
  15 H     1.0000    0     1.008   -6.317971   -8.630406    1.905388
  16 H     1.0000    0     1.008   -5.430386    3.590738   -1.411222
  17 H     1.0000    0     1.008  -14.760547    1.965337   -1.957509
  18 H     1.0000    0     1.008  -12.951841    6.172932   -3.076542
  19 H     1.0000    0     1.008   -8.352767    6.925756   -2.818780
  20 C     6.0000    0    12.011    8.081954    1.387099   -0.148647
  21 N     7.0000    0    14.007    7.333287    3.751332    0.379879
  22 O     8.0000    0    15.999    4.786162    3.681200    0.642794
  23 C     6.0000    0    12.011    3.930333    1.313694    0.287710
  24 C     6.0000    0    12.011    5.946021   -0.256404   -0.228150
  25 C     6.0000    0    12.011    1.225943    0.844316    0.490636
  26 N     7.0000    0    14.007   -0.425400    2.691137    1.025478
  27 O     8.0000    0    15.999   -2.749978    1.602049    1.061644
  28 C     6.0000    0    12.011   -2.582218   -0.875268    0.554319
  29 C     6.0000    0    12.011   -0.068815   -1.495495    0.186492
  30 H     1.0000    0     1.008    0.721936   -3.320404   -0.273033
  31 H     1.0000    0     1.008    5.922712   -2.261946   -0.605208
  32 N     7.0000    0    14.007   12.373621    4.996373    0.066158
  33 C     6.0000    0    12.011   12.758948    2.585725   -0.430408
  34 C     6.0000    0    12.011   15.371504    1.749453   -0.871927
  35 N     7.0000    0    14.007   17.192406    3.460346   -0.746920
  36 S    16.0000    0    32.060   15.592145    6.539409    0.007764
  37 C     6.0000    0    12.011   15.777267   -0.881139   -1.412379
  38 C     6.0000    0    12.011   13.723167   -2.458066   -1.486927
  39 N     7.0000    0    14.007   11.257668   -1.703122   -1.076699
  40 C     6.0000    0    12.011   10.736668    0.699828   -0.566617
  41 H     1.0000    0     1.008   13.978934   -4.468657   -1.894155
  42 H     1.0000    0     1.008  -10.701788   -7.088379    1.068093
  43 H     1.0000    0     1.008   17.674528   -1.587314   -1.751681

--------------------------------
INTERNAL COORDINATES (ANGSTROEM)
--------------------------------
 C      0   0   0     0.000000000000     0.00000000     0.00000000
 C      1   0   0     1.392405454828     0.00000000     0.00000000
 C      2   1   0     1.408183732352   119.14817326     0.00000000
 C      3   2   1     1.423359621548   118.34284718     1.06957703
 C      4   3   2     1.403284922020   122.60420784   358.60608987
 C      5   4   3     1.392276622102   117.47968279     0.66721604
 C      3   2   1     1.455028112021   135.13761941   178.49545930
 C      7   3   2     1.426514084769   106.03509756   183.49079295
 N      8   7   3     1.381883411379   109.27245993   358.42158208
 C      8   7   3     1.402865316843   123.08393769   177.46363798
 C     10   8   7     1.392909659491   117.40365300   359.35401565
 C     11  10   8     1.401030231863   120.87800545     0.98212468
 C     12  11  10     1.407536260316   122.31150109     0.25495522
 H     12  11  10     1.086672478561   118.99330284   178.57827802
 H      9   8   7     1.012656590653   125.33016389   179.18532820
 H     11  10   8     1.086135912550   119.80088124   180.47426260
 H      2   1   3     1.085043096443   119.64950911   179.67026055
 H      5   4   3     1.086642747895   121.13781056   180.26805210
 H      6   5   4     1.086648663845   119.59579396   179.93931930
 H      1   2   3     1.086383042708   119.36367216   179.92623220
 C     14  12  11     6.899097243442   122.75335708   173.75495042
 N     21  14  12     1.341800055104   103.68883980    33.80801808
 O     22  21  14     1.355550106900   106.82526141   351.34342824
 C     23  22  21     1.345360913826   110.23569069     0.00000000
 C     24  23  22     1.379348753606   109.16283393     0.00000000
 C     24  23  22     1.456460657259   118.63832171   180.03505619
 N     26  24  23     1.341204860603   122.10623363   359.79675625
 O     27  26  24     1.358562133799   106.48731149   179.85917302
 C     28  27  26     1.341088105876   110.60476747   359.80869010
 C     29  28  27     1.383692206401   108.88414263     0.59385148
 H     30  29  28     1.080188501805   128.03098067   180.72363146
 H     25  24  23     1.079951090560   128.29271798   180.00372132
 N     22  21  14     2.752409030493    85.66989026   171.37340103
 C     33  22  21     1.318307396919    86.00215449   359.97405039
 C     34  33  22     1.470288037901   117.92797727   180.01170983
 N     35  34  33     1.323838313167   118.07506956     0.00000000
 S     36  35  34     1.879213238739   105.99735949     0.00000000
 C     35  34  33     1.437254496017   117.62074187   180.00415879
 C     38  35  34     1.370925018967   118.47799768     0.00000000
 N     39  38  35     1.381639963903   124.62459115     0.00000000
 C     40  39  38     1.328835059895   120.29997585     0.00000000
 H     39  38  35     1.093967915650   119.97149782   179.99821740
 H     10   8   7     1.086279552796   121.19170497   179.94766504
 H     38  35  34     1.086220207911   120.27742930   179.99969592

---------------------------
INTERNAL COORDINATES (A.U.)
---------------------------
 C      0   0   0     0.000000000000     0.00000000     0.00000000
 C      1   0   0     2.631264977003     0.00000000     0.00000000
 C      2   1   0     2.661081600389   119.14817326     0.00000000
 C      3   2   1     2.689759874808   118.34284718     1.06957703
 C      4   3   2     2.651824190478   122.60420784   358.60608987
 C      5   4   3     2.631021518433   117.47968279     0.66721604
 C      3   2   1     2.749604648875   135.13761941   178.49545930
 C      7   3   2     2.695720946395   106.03509756   183.49079295
 N      8   7   3     2.611381196515   109.27245993   358.42158208
 C      8   7   3     2.651031251609   123.08393769   177.46363798
 C     10   8   7     2.632217785732   117.40365300   359.35401565
 C     11  10   8     2.647563443566   120.87800545     0.98212468
 C     12  11  10     2.659858055560   122.31150109     0.25495522
 H     12  11  10     2.053513381749   118.99330284   178.57827802
 H      9   8   7     1.913643624045   125.33016389   179.18532820
 H     11  10   8     2.052499418935   119.80088124   180.47426260
 H      2   1   3     2.050434295779   119.64950911   179.67026055
 H      5   4   3     2.053457198934   121.13781056   180.26805210
 H      6   5   4     2.053468378458   119.59579396   179.93931930
 H      1   2   3     2.052966427254   119.36367216   179.92623220
 C     14  12  11    13.037404361396   122.75335708   173.75495042
 N     21  14  12     2.535634630628   103.68883980    33.80801808
 O     22  21  14     2.561618462850   106.82526141   351.34342824
 C     23  22  21     2.542363678414   110.23569069     0.00000000
 C     24  23  22     2.606591387480   109.16283393     0.00000000
 C     24  23  22     2.752311767051   118.63832171   180.03505619
 N     26  24  23     2.534509876024   122.10623363   359.79675625
 O     27  26  24     2.567310368797   106.48731149   179.85917302
 C     28  27  26     2.534289241566   110.60476747   359.80869010
 C     29  28  27     2.614799323738   108.88414263     0.59385148
 H     30  29  28     2.041260441421   128.03098067   180.72363146
 H     25  24  23     2.040811799187   128.29271798   180.00372132
 N     22  21  14     5.201299276164    85.66989026   171.37340103
 C     33  22  21     2.491239940499    86.00215449   359.97405039
 C     34  33  22     2.778441729614   117.92797727   180.01170983
 N     35  34  33     2.501691857478   118.07506956     0.00000000
 S     36  35  34     3.551198368457   105.99735949     0.00000000
 C     35  34  33     2.716017382219   117.62074187   180.00415879
 C     38  35  34     2.590672835989   118.47799768     0.00000000
 N     39  38  35     2.610921147457   124.62459115     0.00000000
 C     40  39  38     2.511134340355   120.29997585     0.00000000
 H     39  38  35     2.067299759876   119.97149782   179.99821740
 H     10   8   7     2.052770859663   121.19170497   179.94766504
 H     38  35  34     2.052658714082   120.27742930   179.99969592

---------------------
BASIS SET INFORMATION
---------------------
There are 5 groups of distinct atoms

 Group   1 Type C   : 11s6p2d1f contracted to 5s3p2d1f pattern {62111/411/11/1}
 Group   2 Type N   : 11s6p2d1f contracted to 5s3p2d1f pattern {62111/411/11/1}
 Group   3 Type H   : 5s1p contracted to 3s1p pattern {311/1}
 Group   4 Type O   : 11s6p2d1f contracted to 5s3p2d1f pattern {62111/411/11/1}
 Group   5 Type S   : 14s9p3d1f contracted to 5s5p2d1f pattern {73211/51111/21/1}

Atom   0C    basis set group =>   1
Atom   1C    basis set group =>   1
Atom   2C    basis set group =>   1
Atom   3C    basis set group =>   1
Atom   4C    basis set group =>   1
Atom   5C    basis set group =>   1
Atom   6C    basis set group =>   1
Atom   7C    basis set group =>   1
Atom   8N    basis set group =>   2
Atom   9C    basis set group =>   1
Atom  10C    basis set group =>   1
Atom  11C    basis set group =>   1
Atom  12C    basis set group =>   1
Atom  13H    basis set group =>   3
Atom  14H    basis set group =>   3
Atom  15H    basis set group =>   3
Atom  16H    basis set group =>   3
Atom  17H    basis set group =>   3
Atom  18H    basis set group =>   3
Atom  19H    basis set group =>   3
Atom  20C    basis set group =>   1
Atom  21N    basis set group =>   2
Atom  22O    basis set group =>   4
Atom  23C    basis set group =>   1
Atom  24C    basis set group =>   1
Atom  25C    basis set group =>   1
Atom  26N    basis set group =>   2
Atom  27O    basis set group =>   4
Atom  28C    basis set group =>   1
Atom  29C    basis set group =>   1
Atom  30H    basis set group =>   3
Atom  31H    basis set group =>   3
Atom  32N    basis set group =>   2
Atom  33C    basis set group =>   1
Atom  34C    basis set group =>   1
Atom  35N    basis set group =>   2
Atom  36S    basis set group =>   5
Atom  37C    basis set group =>   1
Atom  38C    basis set group =>   1
Atom  39N    basis set group =>   2
Atom  40C    basis set group =>   1
Atom  41H    basis set group =>   3
Atom  42H    basis set group =>   3
Atom  43H    basis set group =>   3
-------------------------------
AUXILIARY BASIS SET INFORMATION
-------------------------------
There are 5 groups of distinct atoms

 Group   1 Type C   : 12s5p4d2f1g contracted to 6s4p3d1f1g pattern {711111/2111/211/2/1}
 Group   2 Type N   : 12s5p4d2f1g contracted to 6s4p3d1f1g pattern {711111/2111/211/2/1}
 Group   3 Type H   : 5s2p1d contracted to 3s1p1d pattern {311/2/1}
 Group   4 Type O   : 12s5p4d2f1g contracted to 6s4p3d1f1g pattern {711111/2111/211/2/1}
 Group   5 Type S   : 14s5p5d2f1g contracted to 8s4p3d1f1g pattern {71111111/2111/311/2/1}

Atom   0C    basis set group =>   1
Atom   1C    basis set group =>   1
Atom   2C    basis set group =>   1
Atom   3C    basis set group =>   1
Atom   4C    basis set group =>   1
Atom   5C    basis set group =>   1
Atom   6C    basis set group =>   1
Atom   7C    basis set group =>   1
Atom   8N    basis set group =>   2
Atom   9C    basis set group =>   1
Atom  10C    basis set group =>   1
Atom  11C    basis set group =>   1
Atom  12C    basis set group =>   1
Atom  13H    basis set group =>   3
Atom  14H    basis set group =>   3
Atom  15H    basis set group =>   3
Atom  16H    basis set group =>   3
Atom  17H    basis set group =>   3
Atom  18H    basis set group =>   3
Atom  19H    basis set group =>   3
Atom  20C    basis set group =>   1
Atom  21N    basis set group =>   2
Atom  22O    basis set group =>   4
Atom  23C    basis set group =>   1
Atom  24C    basis set group =>   1
Atom  25C    basis set group =>   1
Atom  26N    basis set group =>   2
Atom  27O    basis set group =>   4
Atom  28C    basis set group =>   1
Atom  29C    basis set group =>   1
Atom  30H    basis set group =>   3
Atom  31H    basis set group =>   3
Atom  32N    basis set group =>   2
Atom  33C    basis set group =>   1
Atom  34C    basis set group =>   1
Atom  35N    basis set group =>   2
Atom  36S    basis set group =>   5
Atom  37C    basis set group =>   1
Atom  38C    basis set group =>   1
Atom  39N    basis set group =>   2
Atom  40C    basis set group =>   1
Atom  41H    basis set group =>   3
Atom  42H    basis set group =>   3
Atom  43H    basis set group =>   3
-------------------------
ECP PARAMETER INFORMATION
-------------------------



--------------------------------------------------------------------------
[[58822,1],2]: A high-performance Open MPI point-to-point messaging module
was unable to find any relevant network interfaces:

Module: OpenFabrics (openib)
  Host: cx1-108-9-3

Another transport will be used instead, although this may result in
lower performance.
--------------------------------------------------------------------------


           ************************************************************
           *        Program running with 24 parallel MPI-processes    *
           *              working on a common directory               *
           ************************************************************
------------------------------------------------------------------------------
                           ORCA GTO INTEGRAL CALCULATION
                           -- RI-GTO INTEGRALS CHOSEN --
------------------------------------------------------------------------------

                         BASIS SET STATISTICS AND STARTUP INFO

Gaussian basis set:
 # of primitive gaussian shells          ...  719
 # of primitive gaussian functions       ... 1585
 # of contracted shells                  ...  402
 # of contracted basis functions         ... 1070
 Highest angular momentum                ...    3
 Maximum contraction depth               ...    7
Auxiliary gaussian basis set:
 # of primitive gaussian shells          ...  867
 # of primitive gaussian functions       ... 2439
 # of contracted shells                  ...  542
 # of contracted aux-basis functions     ... 1702
 Highest angular momentum                ...    4
 Maximum contraction depth               ...    7
Ratio of auxiliary to basis functions    ...  1.59
Integral package used                  ... LIBINT
 One Electron integrals                  
   ECP integrals                         ... done
 Ordering auxiliary basis shells         ... done
 Integral threshhold             Thresh  ...  2.500e-11
 Primitive cut-off               TCut    ...  2.500e-12
 Pre-screening matrix                    ... done
 Shell pair data                         ... 
 Ordering of the shell pairs             ... done (   0.015 sec) 41846 of 81003 pairs
 Determination of significant pairs      ... done (   0.000 sec)
 Creation of shell pair data             ... done (   0.008 sec)
 Storage of shell pair data              ... done (   0.106 sec)
 Shell pair data done in (   0.131 sec)
 Computing two index integrals           ... done
 Cholesky decomposition of the V-matrix  ... done


Timings:
 Total evaluation time                   ...   5.032 sec (  0.084 min)
 One electron matrix time                ...   1.405 sec (  0.023 min) = 27.9%
 Schwartz matrix evaluation time         ...   1.961 sec (  0.033 min) = 39.0%
 Two index repulsion integral time       ...   0.960 sec (  0.016 min) = 19.1%
 Cholesky decomposition of V             ...   0.538 sec (  0.009 min) = 10.7%
 Three index repulsion integral time     ...   0.000 sec (  0.000 min) =  0.0%

--------------------------------------------------------------------------
[[58901,1],3]: A high-performance Open MPI point-to-point messaging module
was unable to find any relevant network interfaces:

Module: OpenFabrics (openib)
  Host: cx1-108-9-3

Another transport will be used instead, although this may result in
lower performance.
--------------------------------------------------------------------------


           ************************************************************
           *        Program running with 24 parallel MPI-processes    *
           *              working on a common directory               *
           ************************************************************
-------------------------------------------------------------------------------
                                 ORCA SCF
-------------------------------------------------------------------------------

------------
SCF SETTINGS
------------
Hamiltonian:
 Density Functional     Method          .... DFT(GTOs)
 Exchange Functional    Exchange        .... WB97X-D3
 Correlation Functional Correlation     .... WB97X-D3
 Gradients option       PostSCFGGA      .... off
 Hybrid DFT is turned on
   Fraction HF Exchange ScalHFX         ....  0.195728
   Scaling of DF-GGA-X  ScalDFX         ....  0.000000
   Scaling of DF-GGA-C  ScalDFC         ....  1.000000
   Scaling of DF-LDA-C  ScalLDAC        ....  1.000000
   Perturbative correction              ....  0.000000
 Long-range corrected/Screened/Range-Separated Hybrid DFT is turned on
   Amount of maximum screened exact exchange              ....  0.804272
   Range separation parameter mu (erf(mu*r12)/r12)        ....  0.250000
 RI-approximation to the Coulomb term is turned on
   Number of auxiliary basis functions  .... 1702
   RIJ-COSX (HFX calculated with COS-X)).... on


General Settings:
 Integral files         IntName         .... total
 Hartree-Fock type      HFTyp           .... RHF
 Total Charge           Charge          ....    0
 Multiplicity           Mult            ....    1
 Number of Electrons    NEL             ....  224
 Basis Dimension        Dim             .... 1070
 Nuclear Repulsion      ENuc            ....   2832.6981592189 Eh

Convergence Acceleration:
 DIIS                   CNVDIIS         .... on
   Start iteration      DIISMaxIt       ....    12
   Startup error        DIISStart       ....  0.200000
   # of expansion vecs  DIISMaxEq       ....     5
   Bias factor          DIISBfac        ....   1.050
   Max. coefficient     DIISMaxC        ....  10.000
 Newton-Raphson         CNVNR           .... off
 SOSCF                  CNVSOSCF        .... on
   Start iteration      SOSCFMaxIt      ....   150
   Startup grad/error   SOSCFStart      ....  0.003300
 Level Shifting         CNVShift        .... on
   Level shift para.    LevelShift      ....    0.2500
   Turn off err/grad.   ShiftErr        ....    0.0010
 Zerner damping         CNVZerner       .... off
 Static damping         CNVDamp         .... on
   Fraction old density DampFac         ....    0.7000
   Max. Damping (<1)    DampMax         ....    0.9800
   Min. Damping (>=0)   DampMin         ....    0.0000
   Turn off err/grad.   DampErr         ....    0.1000
 Fernandez-Rico         CNVRico         .... off

SCF Procedure:
 Maximum # iterations   MaxIter         ....   125
 SCF integral mode      SCFMode         .... Direct
   Integral package                     .... LIBINT
 Reset frequeny         DirectResetFreq ....    20
 Integral Threshold     Thresh          ....  2.500e-11 Eh
 Primitive CutOff       TCut            ....  2.500e-12 Eh

Convergence Tolerance:
 Convergence Check Mode ConvCheckMode   .... Total+1el-Energy
 Convergence forced     ConvForced      .... 1
 Energy Change          TolE            ....  1.000e-08 Eh
 1-El. energy change                    ....  1.000e-05 Eh
 Orbital Gradient       TolG            ....  1.000e-05
 Orbital Rotation angle TolX            ....  1.000e-05
 DIIS Error             TolErr          ....  5.000e-07


Diagonalization of the overlap matrix:
Smallest eigenvalue                        ... 5.889e-06
Time for diagonalization                   ...    0.388 sec
Threshold for overlap eigenvalues          ... 1.000e-08
Number of eigenvalues below threshold      ... 0
Time for construction of square roots      ...    0.345 sec
Total time needed                          ...    0.744 sec

-------------------
DFT GRID GENERATION
-------------------

General Integration Accuracy     IntAcc      ...  5.010
Radial Grid Type                 RadialGrid  ... Gauss-Chebyshev
Angular Grid (max. acc.)         AngularGrid ... Lebedev-434
Angular grid pruning method      GridPruning ... 3 (G Style)
Weight generation scheme         WeightScheme... Becke
Basis function cutoff            BFCut       ...    1.0000e-11
Integration weight cutoff        WCut        ...    1.0000e-14
Grids for H and He will be reduced by one unit

# of grid points (after initial pruning)     ... 423322 (   0.0 sec)
# of grid points (after weights+screening)   ... 372943 (   1.1 sec)
nearest neighbour list constructed           ...    0.0 sec
Grid point re-assignment to atoms done       ...    0.2 sec
Grid point division into batches done        ...    4.4 sec
Reduced shell lists constructed in    5.3 sec

Total number of grid points                  ...   372943
Total number of batches                      ...     5849
Average number of points per batch           ...       63
Average number of grid points per atom       ...     8476
Average number of shells per batch           ...   131.35 (32.67%)
Average number of basis functions per batch  ...   337.42 (31.53%)
Average number of large shells per batch     ...    89.94 (68.47%)
Average number of large basis fcns per batch ...   231.19 (68.52%)
Maximum spatial batch extension              ...   9.86, 19.39, 21.00 au
Average spatial batch extension              ...   0.06,  0.07,  0.07 au

Time for grid setup =    7.254 sec

------------------------------
INITIAL GUESS: MODEL POTENTIAL
------------------------------
Loading Hartree-Fock densities                     ... done
Calculating cut-offs                               ... done
Setting up the integral package                    ... done
Initializing the effective Hamiltonian             ... done
Starting the Coulomb interaction                   ... done (   0.4 sec)
Reading the grid                                   ... done
Mapping shells                                     ... done
Starting the XC term evaluation                    ... done (   2.1 sec)
  promolecular density results
     # of electrons  =    223.994206975
     EX              =   -201.527922839
     EC              =     -7.681830998
     EX+EC           =   -209.209753837
Transforming the Hamiltonian                       ... done (   0.2 sec)
Diagonalizing the Hamiltonian                      ... done (   0.4 sec)
Back transforming the eigenvectors                 ... done (   0.1 sec)
Now organizing SCF variables                       ... done
                      ------------------
                      INITIAL GUESS DONE (  10.7 sec)
                      ------------------
--------------------
COSX GRID GENERATION
--------------------

General Integration Accuracy     IntAcc      ...  3.340
Radial Grid Type                 RadialGrid  ... Gauss-Chebyshev
Angular Grid (max. acc.)         AngularGrid ... Lebedev-50
Angular grid pruning method      GridPruning ... 3 (G Style)
Weight generation scheme         WeightScheme... Becke
Basis function cutoff            BFCut       ...    1.0000e-11
Integration weight cutoff        WCut        ...    1.0000e-14
Grids for H and He will be reduced by one unit

# of grid points (after initial pruning)     ...  22442 (   0.0 sec)
# of grid points (after weights+screening)   ...  20579 (   0.1 sec)
nearest neighbour list constructed           ...    0.0 sec
Grid point re-assignment to atoms done       ...    0.0 sec
Grid point division into batches done        ...    0.0 sec
Reduced shell lists constructed in    0.1 sec

Total number of grid points                  ...    20579
Total number of batches                      ...      344
Average number of points per batch           ...       59
Average number of grid points per atom       ...      468
Average number of shells per batch           ...   146.56 (36.46%)
Average number of basis functions per batch  ...   382.19 (35.72%)
Average number of large shells per batch     ...   102.75 (70.11%)
Average number of large basis fcns per batch ...   268.38 (70.22%)
Maximum spatial batch extension              ...   4.82, 11.62, 27.87 au
Average spatial batch extension              ...   0.12,  0.16,  0.30 au

Overlap Fitting                  UseSFitting ... on
Constructing numerical overlap ... done (      0.1 sec)
Inverting numerical overlap    ... done (      0.1 sec)
Obtaining analytic overlap     ... done (      0.0 sec)
Final contraction and storage  ... done (      0.4 sec)


General Integration Accuracy     IntAcc      ...  3.670
Radial Grid Type                 RadialGrid  ... Gauss-Chebyshev
Angular Grid (max. acc.)         AngularGrid ... Lebedev-50
Angular grid pruning method      GridPruning ... 3 (G Style)
Weight generation scheme         WeightScheme... Becke
Basis function cutoff            BFCut       ...    1.0000e-11
Integration weight cutoff        WCut        ...    1.0000e-14
Grids for H and He will be reduced by one unit

# of grid points (after initial pruning)     ...  28036 (   0.0 sec)
# of grid points (after weights+screening)   ...  25647 (   0.1 sec)
nearest neighbour list constructed           ...    0.0 sec
Grid point re-assignment to atoms done       ...    0.0 sec
Grid point division into batches done        ...    0.0 sec
Reduced shell lists constructed in    0.1 sec

Total number of grid points                  ...    25647
Total number of batches                      ...      419
Average number of points per batch           ...       61
Average number of grid points per atom       ...      583
Average number of shells per batch           ...   144.21 (35.87%)
Average number of basis functions per batch  ...   374.84 (35.03%)
Average number of large shells per batch     ...   100.74 (69.85%)
Average number of large basis fcns per batch ...   262.84 (70.12%)
Maximum spatial batch extension              ...   4.77, 10.04, 22.76 au
Average spatial batch extension              ...   0.10,  0.14,  0.24 au

Overlap Fitting                  UseSFitting ... on
Constructing numerical overlap ... done (      0.1 sec)
Inverting numerical overlap    ... done (      0.1 sec)
Obtaining analytic overlap     ... done (      0.0 sec)
Final contraction and storage  ... done (      0.5 sec)


General Integration Accuracy     IntAcc      ...  4.010
Radial Grid Type                 RadialGrid  ... Gauss-Chebyshev
Angular Grid (max. acc.)         AngularGrid ... Lebedev-110
Angular grid pruning method      GridPruning ... 3 (G Style)
Weight generation scheme         WeightScheme... Becke
Basis function cutoff            BFCut       ...    1.0000e-11
Integration weight cutoff        WCut        ...    1.0000e-14
Grids for H and He will be reduced by one unit

# of grid points (after initial pruning)     ...  55064 (   0.0 sec)
# of grid points (after weights+screening)   ...  49785 (   0.1 sec)
nearest neighbour list constructed           ...    0.0 sec
Grid point re-assignment to atoms done       ...    0.0 sec
Grid point division into batches done        ...    0.1 sec
Reduced shell lists constructed in    0.2 sec

Total number of grid points                  ...    49785
Total number of batches                      ...      798
Average number of points per batch           ...       62
Average number of grid points per atom       ...     1131
Average number of shells per batch           ...   142.60 (35.47%)
Average number of basis functions per batch  ...   371.06 (34.68%)
Average number of large shells per batch     ...    98.97 (69.40%)
Average number of large basis fcns per batch ...   257.83 (69.48%)
Maximum spatial batch extension              ...   8.09, 10.08, 18.49 au
Average spatial batch extension              ...   0.10,  0.12,  0.19 au

Overlap Fitting                  UseSFitting ... on
Constructing numerical overlap ... done (      0.2 sec)
Inverting numerical overlap    ... done (      0.1 sec)
Obtaining analytic overlap     ... done (      0.0 sec)
Final contraction and storage  ... done (      0.5 sec)

Time for X-Grid setup             =    3.385 sec
--------------
SCF ITERATIONS
--------------
ITER       Energy         Delta-E        Max-DP      RMS-DP      [F,P]     Damp
               ***  Starting incremental Fock matrix formation  ***
  0  -1760.0874496375   0.000000000000 0.07897854  0.00072294  0.2215714 0.7000
  1  -1760.3676613583  -0.280211720745 0.08170914  0.00061203  0.1021381 0.7000
                               ***Turning on DIIS***
  2  -1760.4982071242  -0.130545765952 0.17652705  0.00134224  0.0507767 0.0000
  3  -1760.7072779658  -0.209070841549 0.08300212  0.00039671  0.0764240 0.0000
  4  -1760.7502368245  -0.042958858703 0.03577995  0.00016622  0.0134576 0.0000
  5  -1760.7524336009  -0.002196776431 0.01216209  0.00006891  0.0079586 0.0000
  6  -1760.7532267505  -0.000793149598 0.00641207  0.00004066  0.0044152 0.0000
  7  -1760.7536402168  -0.000413466249 0.00381180  0.00002618  0.0027352 0.0000
  8  -1760.7538693189  -0.000229102173 0.00293577  0.00001791  0.0019328 0.0000
                      *** Initiating the SOSCF procedure ***
                           *** Shutting down DIIS ***
                      *** Re-Reading the Fockian *** 
                      *** Removing any level shift *** 
ITER      Energy       Delta-E        Grad      Rot      Max-DP    RMS-DP
  9  -1760.75397649  -0.0001071678  0.002689  0.002689  0.001794  0.000012
               *** Restarting incremental Fock matrix formation ***
 10  -1760.75403064  -0.0000541550  0.001011  0.003288  0.012677  0.000129
 11  -1760.75404284  -0.0000121979  0.000294  0.004317  0.012759  0.000132
 12  -1760.75404850  -0.0000056652  0.000207  0.000868  0.010584  0.000110
 13  -1760.75405097  -0.0000024682  0.000118  0.000226  0.003999  0.000042
 14  -1760.75405148  -0.0000005106  0.000055  0.000165  0.002648  0.000027
 15  -1760.75405151  -0.0000000262  0.000011  0.000023  0.000640  0.000003
 16  -1760.75405144   0.0000000664  0.000013  0.000013  0.000240  0.000002
                  ***Gradient check signals convergence***
              ***Rediagonalizing the Fockian in SOSCF/NRSCF***

               *****************************************************
               *                     SUCCESS                       *
               *           SCF CONVERGED AFTER  17 CYCLES          *
               *****************************************************

Old exchange energy                            =    -64.009084362 Eh
New exchange energy                            =    -64.009216284 Eh
Exchange energy change after final integration =     -0.000131922 Eh
Total energy after final integration           =  -1760.754183398 Eh
Final COS-X integration done in                =    41.850 sec

----------------
TOTAL SCF ENERGY
----------------

Total Energy       :        -1760.75418340 Eh          -47912.55716 eV

Components:
Nuclear Repulsion  :         2832.69815922 Eh           77081.63567 eV
Electronic Energy  :        -4593.45234262 Eh         -124994.19282 eV
One Electron Energy:        -8031.05407336 Eh         -218536.09150 eV
Two Electron Energy:         3437.60173075 Eh           93541.89867 eV

Virial components:
Potential Energy   :        -3513.37750823 Eh          -95603.86241 eV
Kinetic Energy     :         1752.62332483 Eh           47691.30525 eV
Virial Ratio       :            2.00463925


DFT components:
N(Alpha)           :      112.000005137144 electrons
N(Beta)            :      112.000005137144 electrons
N(Total)           :      224.000010274288 electrons
E(XC)              :     -149.081421118680 Eh       

---------------
SCF CONVERGENCE
---------------

  Last Energy change         ...   -3.2513e-08  Tolerance :   1.0000e-08
  Last MAX-Density change    ...    4.4797e-13  Tolerance :   1.0000e-07
  Last RMS-Density change    ...    9.1906e-16  Tolerance :   5.0000e-09
  Last Orbital Gradient      ...    1.2602e-06  Tolerance :   1.0000e-05
  Last Orbital Rotation      ...    5.2036e-06  Tolerance :   1.0000e-05

             **** THE GBW FILE WAS UPDATED (total.gbw) ****
             **** DENSITY FILE WAS UPDATED (total.scfp.tmp) ****
             **** ENERGY FILE WAS UPDATED (total.en.tmp) ****
----------------
ORBITAL ENERGIES
----------------

  NO   OCC          E(Eh)            E(eV) 
   0   2.0000     -89.040190     -2422.9068 
   1   2.0000     -19.342599      -526.3389 
   2   2.0000     -19.342436      -526.3344 
   3   2.0000     -14.496348      -394.4657 
   4   2.0000     -14.490862      -394.3164 
   5   2.0000     -14.489750      -394.2861 
   6   2.0000     -14.486308      -394.1925 
   7   2.0000     -14.474516      -393.8716 
   8   2.0000     -14.459171      -393.4541 
   9   2.0000     -10.379149      -282.4310 
  10   2.0000     -10.375340      -282.3274 
  11   2.0000     -10.372646      -282.2540 
  12   2.0000     -10.361423      -281.9487 
  13   2.0000     -10.360614      -281.9267 
  14   2.0000     -10.349102      -281.6134 
  15   2.0000     -10.344461      -281.4871 
  16   2.0000     -10.344455      -281.4869 
  17   2.0000     -10.338087      -281.3136 
  18   2.0000     -10.330564      -281.1090 
  19   2.0000     -10.322479      -280.8889 
  20   2.0000     -10.318256      -280.7740 
  21   2.0000     -10.308206      -280.5005 
  22   2.0000     -10.307992      -280.4947 
  23   2.0000     -10.305289      -280.4212 
  24   2.0000     -10.301379      -280.3148 
  25   2.0000     -10.298862      -280.2463 
  26   2.0000     -10.296765      -280.1892 
  27   2.0000     -10.294627      -280.1310 
  28   2.0000     -10.289162      -279.9823 
  29   2.0000     -10.287784      -279.9448 
  30   2.0000     -10.285175      -279.8738 
  31   2.0000     -10.276368      -279.6342 
  32   2.0000      -8.128696      -221.1931 
  33   2.0000      -6.084540      -165.5688 
  34   2.0000      -6.078174      -165.3955 
  35   2.0000      -6.073953      -165.2807 
  36   2.0000      -1.292898       -35.1816 
  37   2.0000      -1.289372       -35.0856 
  38   2.0000      -1.111900       -30.2563 
  39   2.0000      -1.109513       -30.1914 
  40   2.0000      -1.073202       -29.2033 
  41   2.0000      -1.021292       -27.7908 
  42   2.0000      -1.011519       -27.5248 
  43   2.0000      -0.992033       -26.9946 
  44   2.0000      -0.983839       -26.7716 
  45   2.0000      -0.968769       -26.3615 
  46   2.0000      -0.943026       -25.6610 
  47   2.0000      -0.925764       -25.1913 
  48   2.0000      -0.912135       -24.8205 
  49   2.0000      -0.906566       -24.6689 
  50   2.0000      -0.885807       -24.1040 
  51   2.0000      -0.876528       -23.8516 
  52   2.0000      -0.850910       -23.1544 
  53   2.0000      -0.845340       -23.0029 
  54   2.0000      -0.802971       -21.8499 
  55   2.0000      -0.784976       -21.3603 
  56   2.0000      -0.774418       -21.0730 
  57   2.0000      -0.766306       -20.8522 
  58   2.0000      -0.741944       -20.1893 
  59   2.0000      -0.738805       -20.1039 
  60   2.0000      -0.725098       -19.7309 
  61   2.0000      -0.719124       -19.5684 
  62   2.0000      -0.713719       -19.4213 
  63   2.0000      -0.706356       -19.2209 
  64   2.0000      -0.673422       -18.3248 
  65   2.0000      -0.667876       -18.1738 
  66   2.0000      -0.635332       -17.2883 
  67   2.0000      -0.632193       -17.2029 
  68   2.0000      -0.620247       -16.8778 
  69   2.0000      -0.612683       -16.6720 
  70   2.0000      -0.610690       -16.6177 
  71   2.0000      -0.607081       -16.5195 
  72   2.0000      -0.597573       -16.2608 
  73   2.0000      -0.594588       -16.1796 
  74   2.0000      -0.583681       -15.8828 
  75   2.0000      -0.573101       -15.5949 
  76   2.0000      -0.568061       -15.4577 
  77   2.0000      -0.563404       -15.3310 
  78   2.0000      -0.561288       -15.2734 
  79   2.0000      -0.552211       -15.0264 
  80   2.0000      -0.547110       -14.8876 
  81   2.0000      -0.535359       -14.5679 
  82   2.0000      -0.534775       -14.5520 
  83   2.0000      -0.529985       -14.4216 
  84   2.0000      -0.527587       -14.3564 
  85   2.0000      -0.521173       -14.1818 
  86   2.0000      -0.507109       -13.7991 
  87   2.0000      -0.502128       -13.6636 
  88   2.0000      -0.497839       -13.5469 
  89   2.0000      -0.494574       -13.4580 
  90   2.0000      -0.477551       -12.9948 
  91   2.0000      -0.473246       -12.8777 
  92   2.0000      -0.472102       -12.8465 
  93   2.0000      -0.455275       -12.3887 
  94   2.0000      -0.449959       -12.2440 
  95   2.0000      -0.447481       -12.1766 
  96   2.0000      -0.441388       -12.0108 
  97   2.0000      -0.435268       -11.8443 
  98   2.0000      -0.432108       -11.7583 
  99   2.0000      -0.416726       -11.3397 
 100   2.0000      -0.411905       -11.2085 
 101   2.0000      -0.407738       -11.0951 
 102   2.0000      -0.398391       -10.8408 
 103   2.0000      -0.396050       -10.7771 
 104   2.0000      -0.380640       -10.3577 
 105   2.0000      -0.375903       -10.2289 
 106   2.0000      -0.371848       -10.1185 
 107   2.0000      -0.349302        -9.5050 
 108   2.0000      -0.338961        -9.2236 
 109   2.0000      -0.334393        -9.0993 
 110   2.0000      -0.305133        -8.3031 
 111   2.0000      -0.294099        -8.0029 
 112   0.0000      -0.064580        -1.7573 
 113   0.0000      -0.004019        -0.1094 
 114   0.0000       0.012527         0.3409 
 115   0.0000       0.016336         0.4445 
 116   0.0000       0.035743         0.9726 
 117   0.0000       0.046570         1.2672 
 118   0.0000       0.060342         1.6420 
 119   0.0000       0.071559         1.9472 
 120   0.0000       0.079405         2.1607 
 121   0.0000       0.091887         2.5004 
 122   0.0000       0.105434         2.8690 
 123   0.0000       0.112655         3.0655 
 124   0.0000       0.120194         3.2706 
 125   0.0000       0.128793         3.5046 
 126   0.0000       0.131527         3.5790 
 127   0.0000       0.135436         3.6854 
 128   0.0000       0.141200         3.8422 
 129   0.0000       0.144808         3.9404 
 130   0.0000       0.159302         4.3348 
 131   0.0000       0.160777         4.3750 
 132   0.0000       0.167939         4.5699 
 133   0.0000       0.171313         4.6617 
 134   0.0000       0.175161         4.7664 
 135   0.0000       0.176581         4.8050 
 136   0.0000       0.180286         4.9058 
 137   0.0000       0.188493         5.1291 
 138   0.0000       0.194943         5.3047 
 139   0.0000       0.198791         5.4094 
 140   0.0000       0.205542         5.5931 
 141   0.0000       0.208357         5.6697 
 142   0.0000       0.210747         5.7347 
 143   0.0000       0.213122         5.7993 
 144   0.0000       0.225145         6.1265 
 145   0.0000       0.227430         6.1887 
 146   0.0000       0.230135         6.2623 
 147   0.0000       0.236892         6.4461 
 148   0.0000       0.239906         6.5282 
 149   0.0000       0.245369         6.6768 
 150   0.0000       0.253023         6.8851 
 151   0.0000       0.255825         6.9613 
 152   0.0000       0.257776         7.0144 
 153   0.0000       0.265544         7.2258 
 154   0.0000       0.266540         7.2529 
 155   0.0000       0.272922         7.4266 
 156   0.0000       0.274530         7.4703 
 157   0.0000       0.277110         7.5406 
 158   0.0000       0.282521         7.6878 
 159   0.0000       0.283988         7.7277 
 160   0.0000       0.289437         7.8760 
 161   0.0000       0.290421         7.9027 
 162   0.0000       0.294352         8.0097 
 163   0.0000       0.296577         8.0703 
 164   0.0000       0.299184         8.1412 
 165   0.0000       0.302028         8.2186 
 166   0.0000       0.303309         8.2535 
 167   0.0000       0.307196         8.3592 
 168   0.0000       0.311209         8.4684 
 169   0.0000       0.314851         8.5675 
 170   0.0000       0.320530         8.7221 
 171   0.0000       0.326811         8.8930 
 172   0.0000       0.328739         8.9454 
 173   0.0000       0.332469         9.0470 
 174   0.0000       0.334045         9.0898 
 175   0.0000       0.335996         9.1429 
 176   0.0000       0.339688         9.2434 
 177   0.0000       0.344926         9.3859 
 178   0.0000       0.351250         9.5580 
 179   0.0000       0.354073         9.6348 
 180   0.0000       0.356273         9.6947 
 181   0.0000       0.359798         9.7906 
 182   0.0000       0.363949         9.9036 
 183   0.0000       0.365325         9.9410 
 184   0.0000       0.366924         9.9845 
 185   0.0000       0.371831        10.1180 
 186   0.0000       0.375874        10.2280 
 187   0.0000       0.377570        10.2742 
 188   0.0000       0.381712        10.3869 
 189   0.0000       0.385176        10.4812 
 190   0.0000       0.385721        10.4960 
 191   0.0000       0.387567        10.5462 
 192   0.0000       0.390240        10.6190 
 193   0.0000       0.394346        10.7307 
 194   0.0000       0.397651        10.8206 
 195   0.0000       0.399739        10.8775 
 196   0.0000       0.409239        11.1360 
 197   0.0000       0.414342        11.2748 
 198   0.0000       0.416473        11.3328 
 199   0.0000       0.418534        11.3889 
 200   0.0000       0.420930        11.4541 
 201   0.0000       0.424617        11.5544 
 202   0.0000       0.428634        11.6637 
 203   0.0000       0.430127        11.7044 
 204   0.0000       0.430523        11.7151 
 205   0.0000       0.435337        11.8461 
 206   0.0000       0.438588        11.9346 
 207   0.0000       0.443630        12.0718 
 208   0.0000       0.445508        12.1229 
 209   0.0000       0.448692        12.2095 
 210   0.0000       0.452865        12.3231 
 211   0.0000       0.457905        12.4602 
 212   0.0000       0.459971        12.5164 
 213   0.0000       0.464288        12.6339 
 214   0.0000       0.468214        12.7408 
 215   0.0000       0.469609        12.7787 
 216   0.0000       0.472205        12.8494 
 217   0.0000       0.475907        12.9501 
 218   0.0000       0.478250        13.0138 
 219   0.0000       0.479866        13.0578 
 220   0.0000       0.483133        13.1467 
 221   0.0000       0.487548        13.2669 
 222   0.0000       0.489487        13.3196 
 223   0.0000       0.491774        13.3819 
 224   0.0000       0.497764        13.5449 
 225   0.0000       0.500023        13.6063 
 226   0.0000       0.503057        13.6889 
 227   0.0000       0.505659        13.7597 
 228   0.0000       0.507093        13.7987 
 229   0.0000       0.509746        13.8709 
 230   0.0000       0.511577        13.9207 
 231   0.0000       0.520431        14.1616 
 232   0.0000       0.526770        14.3341 
 233   0.0000       0.528988        14.3945 
 234   0.0000       0.535242        14.5647 
 235   0.0000       0.536506        14.5991 
 236   0.0000       0.543204        14.7813 
 237   0.0000       0.544789        14.8245 
 238   0.0000       0.548004        14.9119 
 239   0.0000       0.551984        15.0203 
 240   0.0000       0.552328        15.0296 
 241   0.0000       0.556007        15.1297 
 242   0.0000       0.557758        15.1774 
 243   0.0000       0.560773        15.2594 
 244   0.0000       0.563215        15.3259 
 245   0.0000       0.566184        15.4067 
 246   0.0000       0.571983        15.5645 
 247   0.0000       0.576706        15.6930 
 248   0.0000       0.582580        15.8528 
 249   0.0000       0.585450        15.9309 
 250   0.0000       0.591329        16.0909 
 251   0.0000       0.597500        16.2588 
 252   0.0000       0.601625        16.3710 
 253   0.0000       0.605426        16.4745 
 254   0.0000       0.612023        16.6540 
 255   0.0000       0.614065        16.7096 
 256   0.0000       0.623053        16.9541 
 257   0.0000       0.624871        17.0036 
 258   0.0000       0.631906        17.1950 
 259   0.0000       0.636524        17.3207 
 260   0.0000       0.639507        17.4019 
 261   0.0000       0.643194        17.5022 
 262   0.0000       0.654272        17.8037 
 263   0.0000       0.656309        17.8591 
 264   0.0000       0.663965        18.0674 
 265   0.0000       0.664986        18.0952 
 266   0.0000       0.665934        18.1210 
 267   0.0000       0.676224        18.4010 
 268   0.0000       0.679121        18.4798 
 269   0.0000       0.682439        18.5701 
 270   0.0000       0.687882        18.7182 
 271   0.0000       0.691031        18.8039 
 272   0.0000       0.692961        18.8564 
 273   0.0000       0.694696        18.9036 
 274   0.0000       0.698475        19.0065 
 275   0.0000       0.700742        19.0682 
 276   0.0000       0.705154        19.1882 
 277   0.0000       0.707796        19.2601 
 278   0.0000       0.713746        19.4220 
 279   0.0000       0.718557        19.5529 
 280   0.0000       0.721880        19.6433 
 281   0.0000       0.723556        19.6890 
 282   0.0000       0.728381        19.8203 
 283   0.0000       0.730236        19.8707 
 284   0.0000       0.736293        20.0356 
 285   0.0000       0.742565        20.2062 
 286   0.0000       0.743201        20.2235 
 287   0.0000       0.746716        20.3192 
 288   0.0000       0.747977        20.3535 
 289   0.0000       0.751903        20.4603 
 290   0.0000       0.760234        20.6870 
 291   0.0000       0.764232        20.7958 
 292   0.0000       0.766717        20.8634 
 293   0.0000       0.773157        21.0387 
 294   0.0000       0.775933        21.1142 
 295   0.0000       0.778601        21.1868 
 296   0.0000       0.783177        21.3113 
 297   0.0000       0.790112        21.5000 
 298   0.0000       0.792466        21.5641 
 299   0.0000       0.796289        21.6681 
 300   0.0000       0.801237        21.8028 
 301   0.0000       0.802864        21.8470 
 302   0.0000       0.807988        21.9865 
 303   0.0000       0.818333        22.2680 
 304   0.0000       0.819927        22.3113 
 305   0.0000       0.823148        22.3990 
 306   0.0000       0.827944        22.5295 
 307   0.0000       0.830149        22.5895 
 308   0.0000       0.835565        22.7369 
 309   0.0000       0.837460        22.7884 
 310   0.0000       0.844718        22.9859 
 311   0.0000       0.846892        23.0451 
 312   0.0000       0.852094        23.1867 
 313   0.0000       0.857229        23.3264 
 314   0.0000       0.867380        23.6026 
 315   0.0000       0.870968        23.7002 
 316   0.0000       0.875739        23.8301 
 317   0.0000       0.876844        23.8601 
 318   0.0000       0.880676        23.9644 
 319   0.0000       0.888333        24.1728 
 320   0.0000       0.892900        24.2970 
 321   0.0000       0.898009        24.4361 
 322   0.0000       0.903808        24.5939 
 323   0.0000       0.906678        24.6720 
 324   0.0000       0.917442        24.9649 
 325   0.0000       0.920192        25.0397 
 326   0.0000       0.925604        25.1870 
 327   0.0000       0.932216        25.3669 
 328   0.0000       0.935011        25.4429 
 329   0.0000       0.940203        25.5842 
 330   0.0000       0.943129        25.6638 
 331   0.0000       0.947264        25.7764 
 332   0.0000       0.955636        26.0042 
 333   0.0000       0.958560        26.0837 
 334   0.0000       0.959908        26.1204 
 335   0.0000       0.964660        26.2497 
 336   0.0000       0.980031        26.6680 
 337   0.0000       0.982982        26.7483 
 338   0.0000       0.986379        26.8407 
 339   0.0000       0.990060        26.9409 
 340   0.0000       0.995878        27.0992 
 341   0.0000       1.000066        27.2132 
 342   0.0000       1.008577        27.4448 
 343   0.0000       1.013577        27.5808 
 344   0.0000       1.027288        27.9539 
 345   0.0000       1.038820        28.2677 
 346   0.0000       1.041812        28.3491 
 347   0.0000       1.044122        28.4120 
 348   0.0000       1.050822        28.5943 
 349   0.0000       1.058248        28.7964 
 350   0.0000       1.061115        28.8744 
 351   0.0000       1.069210        29.0947 
 352   0.0000       1.072848        29.1937 
 353   0.0000       1.079813        29.3832 
 354   0.0000       1.089638        29.6505 
 355   0.0000       1.092577        29.7305 
 356   0.0000       1.102876        30.0108 
 357   0.0000       1.106608        30.1123 
 358   0.0000       1.110304        30.2129 
 359   0.0000       1.122735        30.5512 
 360   0.0000       1.132498        30.8168 
 361   0.0000       1.136574        30.9277 
 362   0.0000       1.143604        31.1190 
 363   0.0000       1.149151        31.2700 
 364   0.0000       1.151865        31.3438 
 365   0.0000       1.157741        31.5037 
 366   0.0000       1.170687        31.8560 
 367   0.0000       1.172992        31.9187 
 368   0.0000       1.182793        32.1854 
 369   0.0000       1.186791        32.2942 
 370   0.0000       1.191668        32.4269 
 371   0.0000       1.202987        32.7349 
 372   0.0000       1.205062        32.7914 
 373   0.0000       1.213331        33.0164 
 374   0.0000       1.223231        33.2858 
 375   0.0000       1.225461        33.3465 
 376   0.0000       1.227472        33.4012 
 377   0.0000       1.232962        33.5506 
 378   0.0000       1.244130        33.8545 
 379   0.0000       1.249810        34.0091 
 380   0.0000       1.256971        34.2039 
 381   0.0000       1.257631        34.2219 
 382   0.0000       1.269832        34.5539 
 383   0.0000       1.272273        34.6203 
 384   0.0000       1.282072        34.8870 
 385   0.0000       1.286103        34.9966 
 386   0.0000       1.290299        35.1108 
 387   0.0000       1.294752        35.2320 
 388   0.0000       1.301972        35.4285 
 389   0.0000       1.312845        35.7243 
 390   0.0000       1.317080        35.8396 
 391   0.0000       1.323599        36.0170 
 392   0.0000       1.329363        36.1738 
 393   0.0000       1.331516        36.2324 
 394   0.0000       1.342079        36.5198 
 395   0.0000       1.345601        36.6157 
 396   0.0000       1.347782        36.6750 
 397   0.0000       1.350773        36.7564 
 398   0.0000       1.356405        36.9097 
 399   0.0000       1.361107        37.0376 
 400   0.0000       1.373537        37.3759 
 401   0.0000       1.387346        37.7516 
 402   0.0000       1.389347        37.8061 
 403   0.0000       1.393932        37.9308 
 404   0.0000       1.400543        38.1107 
 405   0.0000       1.403670        38.1958 
 406   0.0000       1.405711        38.2513 
 407   0.0000       1.409862        38.3643 
 408   0.0000       1.412740        38.4426 
 409   0.0000       1.423184        38.7268 
 410   0.0000       1.432624        38.9837 
 411   0.0000       1.437848        39.1258 
 412   0.0000       1.446414        39.3589 
 413   0.0000       1.449043        39.4305 
 414   0.0000       1.461448        39.7680 
 415   0.0000       1.464765        39.8583 
 416   0.0000       1.466464        39.9045 
 417   0.0000       1.474651        40.1273 
 418   0.0000       1.475494        40.1502 
 419   0.0000       1.485959        40.4350 
 420   0.0000       1.489749        40.5381 
 421   0.0000       1.493524        40.6409 
 422   0.0000       1.496463        40.7208 
 423   0.0000       1.505761        40.9739 
 424   0.0000       1.510584        41.1051 
 425   0.0000       1.511953        41.1423 
 426   0.0000       1.516253        41.2594 
 427   0.0000       1.523763        41.4637 
 428   0.0000       1.527258        41.5588 
 429   0.0000       1.533784        41.7364 
 430   0.0000       1.538011        41.8514 
 431   0.0000       1.545070        42.0435 
 432   0.0000       1.550971        42.2041 
 433   0.0000       1.552556        42.2472 
 434   0.0000       1.555469        42.3265 
 435   0.0000       1.561013        42.4773 
 436   0.0000       1.563811        42.5535 
 437   0.0000       1.571584        42.7650 
 438   0.0000       1.578486        42.9528 
 439   0.0000       1.580188        42.9991 
 440   0.0000       1.583108        43.0786 
 441   0.0000       1.590640        43.2835 
 442   0.0000       1.591719        43.3129 
 443   0.0000       1.597293        43.4646 
 444   0.0000       1.604188        43.6522 
 445   0.0000       1.605162        43.6787 
 446   0.0000       1.609127        43.7866 
 447   0.0000       1.609798        43.8048 
 448   0.0000       1.614773        43.9402 
 449   0.0000       1.620774        44.1035 
 450   0.0000       1.623271        44.1715 
 451   0.0000       1.631193        44.3870 
 452   0.0000       1.635988        44.5175 
 453   0.0000       1.640560        44.6419 
 454   0.0000       1.649449        44.8838 
 455   0.0000       1.654485        45.0208 
 456   0.0000       1.656884        45.0861 
 457   0.0000       1.660265        45.1781 
 458   0.0000       1.664909        45.3045 
 459   0.0000       1.672158        45.5017 
 460   0.0000       1.678168        45.6653 
 461   0.0000       1.684378        45.8343 
 462   0.0000       1.689613        45.9767 
 463   0.0000       1.692766        46.0625 
 464   0.0000       1.697690        46.1965 
 465   0.0000       1.705748        46.4158 
 466   0.0000       1.714659        46.6583 
 467   0.0000       1.718759        46.7698 
 468   0.0000       1.738682        47.3119 
 469   0.0000       1.742802        47.4241 
 470   0.0000       1.746147        47.5151 
 471   0.0000       1.751889        47.6713 
 472   0.0000       1.757747        47.8307 
 473   0.0000       1.758705        47.8568 
 474   0.0000       1.765417        48.0394 
 475   0.0000       1.766851        48.0785 
 476   0.0000       1.771294        48.1994 
 477   0.0000       1.776273        48.3348 
 478   0.0000       1.780449        48.4485 
 479   0.0000       1.783546        48.5327 
 480   0.0000       1.791013        48.7359 
 481   0.0000       1.792604        48.7792 
 482   0.0000       1.798510        48.9400 
 483   0.0000       1.809523        49.2396 
 484   0.0000       1.810506        49.2664 
 485   0.0000       1.822841        49.6020 
 486   0.0000       1.826901        49.7125 
 487   0.0000       1.831041        49.8252 
 488   0.0000       1.837762        50.0080 
 489   0.0000       1.841145        50.1001 
 490   0.0000       1.849694        50.3327 
 491   0.0000       1.856402        50.5153 
 492   0.0000       1.858536        50.5733 
 493   0.0000       1.859457        50.5984 
 494   0.0000       1.868651        50.8486 
 495   0.0000       1.876217        51.0545 
 496   0.0000       1.881225        51.1907 
 497   0.0000       1.889561        51.4176 
 498   0.0000       1.893668        51.5293 
 499   0.0000       1.900769        51.7226 
 500   0.0000       1.909316        51.9551 
 501   0.0000       1.923158        52.3318 
 502   0.0000       1.939935        52.7883 
 503   0.0000       1.943608        52.8883 
 504   0.0000       1.947174        52.9853 
 505   0.0000       1.951987        53.1163 
 506   0.0000       1.961874        53.3853 
 507   0.0000       1.967199        53.5302 
 508   0.0000       1.971685        53.6523 
 509   0.0000       1.980522        53.8928 
 510   0.0000       1.987835        54.0917 
 511   0.0000       1.991308        54.1862 
 512   0.0000       1.999152        54.3997 
 513   0.0000       2.007874        54.6370 
 514   0.0000       2.012819        54.7716 
 515   0.0000       2.015392        54.8416 
 516   0.0000       2.019551        54.9548 
 517   0.0000       2.023009        55.0489 
 518   0.0000       2.026449        55.1425 
 519   0.0000       2.032144        55.2974 
 520   0.0000       2.042674        55.5840 
 521   0.0000       2.048966        55.7552 
 522   0.0000       2.051867        55.8342 
 523   0.0000       2.061468        56.0954 
 524   0.0000       2.072840        56.4048 
 525   0.0000       2.079090        56.5749 
 526   0.0000       2.082946        56.6798 
 527   0.0000       2.093028        56.9542 
 528   0.0000       2.095614        57.0246 
 529   0.0000       2.104427        57.2644 
 530   0.0000       2.110658        57.4339 
 531   0.0000       2.114063        57.5266 
 532   0.0000       2.119377        57.6712 
 533   0.0000       2.124581        57.8128 
 534   0.0000       2.126928        57.8766 
 535   0.0000       2.138200        58.1834 
 536   0.0000       2.144012        58.3415 
 537   0.0000       2.151699        58.5507 
 538   0.0000       2.157593        58.7111 
 539   0.0000       2.172942        59.1288 
 540   0.0000       2.174576        59.1732 
 541   0.0000       2.176458        59.2244 
 542   0.0000       2.176881        59.2359 
 543   0.0000       2.188371        59.5486 
 544   0.0000       2.191541        59.6349 
 545   0.0000       2.196584        59.7721 
 546   0.0000       2.198289        59.8185 
 547   0.0000       2.211567        60.1798 
 548   0.0000       2.222012        60.4640 
 549   0.0000       2.225519        60.5594 
 550   0.0000       2.230862        60.7048 
 551   0.0000       2.239804        60.9482 
 552   0.0000       2.249307        61.2067 
 553   0.0000       2.260787        61.5191 
 554   0.0000       2.264689        61.6253 
 555   0.0000       2.272992        61.8513 
 556   0.0000       2.280981        62.0686 
 557   0.0000       2.295234        62.4565 
 558   0.0000       2.296756        62.4979 
 559   0.0000       2.308296        62.8119 
 560   0.0000       2.319048        63.1045 
 561   0.0000       2.320801        63.1522 
 562   0.0000       2.329746        63.3956 
 563   0.0000       2.333230        63.4904 
 564   0.0000       2.344745        63.8037 
 565   0.0000       2.345541        63.8254 
 566   0.0000       2.348661        63.9103 
 567   0.0000       2.355703        64.1020 
 568   0.0000       2.365050        64.3563 
 569   0.0000       2.366840        64.4050 
 570   0.0000       2.382067        64.8193 
 571   0.0000       2.386477        64.9393 
 572   0.0000       2.397844        65.2486 
 573   0.0000       2.403754        65.4095 
 574   0.0000       2.417128        65.7734 
 575   0.0000       2.424167        65.9649 
 576   0.0000       2.431122        66.1542 
 577   0.0000       2.433455        66.2177 
 578   0.0000       2.436939        66.3125 
 579   0.0000       2.443122        66.4807 
 580   0.0000       2.454588        66.7927 
 581   0.0000       2.456530        66.8456 
 582   0.0000       2.463460        67.0342 
 583   0.0000       2.480562        67.4995 
 584   0.0000       2.498732        67.9940 
 585   0.0000       2.507113        68.2220 
 586   0.0000       2.513241        68.3888 
 587   0.0000       2.522664        68.6452 
 588   0.0000       2.526892        68.7602 
 589   0.0000       2.537214        69.0411 
 590   0.0000       2.545563        69.2683 
 591   0.0000       2.549927        69.3871 
 592   0.0000       2.557215        69.5853 
 593   0.0000       2.562289        69.7234 
 594   0.0000       2.577653        70.1415 
 595   0.0000       2.583488        70.3003 
 596   0.0000       2.597214        70.6738 
 597   0.0000       2.605327        70.8946 
 598   0.0000       2.619717        71.2861 
 599   0.0000       2.626849        71.4802 
 600   0.0000       2.634985        71.7016 
 601   0.0000       2.642611        71.9091 
 602   0.0000       2.655289        72.2541 
 603   0.0000       2.656081        72.2756 
 604   0.0000       2.661263        72.4166 
 605   0.0000       2.664728        72.5109 
 606   0.0000       2.671297        72.6897 
 607   0.0000       2.675369        72.8005 
 608   0.0000       2.685600        73.0789 
 609   0.0000       2.686800        73.1115 
 610   0.0000       2.692811        73.2751 
 611   0.0000       2.695803        73.3565 
 612   0.0000       2.702340        73.5344 
 613   0.0000       2.707798        73.6829 
 614   0.0000       2.721526        74.0565 
 615   0.0000       2.727584        74.2213 
 616   0.0000       2.731701        74.3334 
 617   0.0000       2.740470        74.5720 
 618   0.0000       2.742586        74.6295 
 619   0.0000       2.745648        74.7129 
 620   0.0000       2.752299        74.8939 
 621   0.0000       2.762831        75.1804 
 622   0.0000       2.767247        75.3006 
 623   0.0000       2.774398        75.4952 
 624   0.0000       2.777702        75.5851 
 625   0.0000       2.780810        75.6697 
 626   0.0000       2.790570        75.9353 
 627   0.0000       2.790917        75.9447 
 628   0.0000       2.801595        76.2353 
 629   0.0000       2.804601        76.3171 
 630   0.0000       2.806673        76.3735 
 631   0.0000       2.817410        76.6656 
 632   0.0000       2.822641        76.8080 
 633   0.0000       2.831460        77.0479 
 634   0.0000       2.836897        77.1959 
 635   0.0000       2.838567        77.2413 
 636   0.0000       2.843334        77.3710 
 637   0.0000       2.846306        77.4519 
 638   0.0000       2.847342        77.4801 
 639   0.0000       2.853180        77.6390 
 640   0.0000       2.866916        78.0128 
 641   0.0000       2.870851        78.1198 
 642   0.0000       2.873573        78.1939 
 643   0.0000       2.876613        78.2766 
 644   0.0000       2.882741        78.4434 
 645   0.0000       2.886237        78.5385 
 646   0.0000       2.891194        78.6734 
 647   0.0000       2.895769        78.7979 
 648   0.0000       2.897904        78.8560 
 649   0.0000       2.907567        79.1189 
 650   0.0000       2.911715        79.2318 
 651   0.0000       2.917802        79.3974 
 652   0.0000       2.923360        79.5487 
 653   0.0000       2.924976        79.5926 
 654   0.0000       2.927135        79.6514 
 655   0.0000       2.933552        79.8260 
 656   0.0000       2.936924        79.9178 
 657   0.0000       2.944434        80.1221 
 658   0.0000       2.952942        80.3536 
 659   0.0000       2.958940        80.5169 
 660   0.0000       2.970160        80.8222 
 661   0.0000       2.971934        80.8704 
 662   0.0000       2.978313        81.0440 
 663   0.0000       2.981930        81.1424 
 664   0.0000       2.984153        81.2029 
 665   0.0000       2.990327        81.3709 
 666   0.0000       2.996919        81.5503 
 667   0.0000       3.001150        81.6655 
 668   0.0000       3.008711        81.8712 
 669   0.0000       3.014345        82.0245 
 670   0.0000       3.026698        82.3606 
 671   0.0000       3.036787        82.6352 
 672   0.0000       3.040448        82.7348 
 673   0.0000       3.042634        82.7943 
 674   0.0000       3.048946        82.9660 
 675   0.0000       3.052363        83.0590 
 676   0.0000       3.057419        83.1966 
 677   0.0000       3.063686        83.3671 
 678   0.0000       3.068859        83.5079 
 679   0.0000       3.074626        83.6648 
 680   0.0000       3.076866        83.7258 
 681   0.0000       3.088517        84.0428 
 682   0.0000       3.091699        84.1294 
 683   0.0000       3.095994        84.2463 
 684   0.0000       3.102105        84.4126 
 685   0.0000       3.104038        84.4652 
 686   0.0000       3.116155        84.7949 
 687   0.0000       3.117082        84.8201 
 688   0.0000       3.120614        84.9162 
 689   0.0000       3.125215        85.0414 
 690   0.0000       3.133484        85.2664 
 691   0.0000       3.144377        85.5629 
 692   0.0000       3.149535        85.7032 
 693   0.0000       3.152353        85.7799 
 694   0.0000       3.157512        85.9203 
 695   0.0000       3.161039        86.0162 
 696   0.0000       3.164740        86.1169 
 697   0.0000       3.169439        86.2448 
 698   0.0000       3.178015        86.4782 
 699   0.0000       3.179512        86.5189 
 700   0.0000       3.183978        86.6404 
 701   0.0000       3.187936        86.7482 
 702   0.0000       3.192319        86.8674 
 703   0.0000       3.200179        87.0813 
 704   0.0000       3.206258        87.2467 
 705   0.0000       3.206857        87.2630 
 706   0.0000       3.209842        87.3443 
 707   0.0000       3.213610        87.4468 
 708   0.0000       3.219595        87.6096 
 709   0.0000       3.222229        87.6813 
 710   0.0000       3.226383        87.7943 
 711   0.0000       3.240581        88.1807 
 712   0.0000       3.245856        88.3242 
 713   0.0000       3.250874        88.4608 
 714   0.0000       3.256146        88.6042 
 715   0.0000       3.258880        88.6786 
 716   0.0000       3.262621        88.7804 
 717   0.0000       3.267113        88.9027 
 718   0.0000       3.273069        89.0647 
 719   0.0000       3.280491        89.2667 
[...]
 101   8.232     150.6   0.009173   0.008969  -14.039980  -13.985242     0.11 (  68->  82)    0.08 (  70->  84)    0.07 (  71->  90)
 102   8.274     149.9   0.062018   0.062156  16.812869  14.534986     0.08 (  63->  77)    0.08 (  65->  80)    0.07 (  48->  74)
 103   8.289     149.6   0.000843   0.000767   0.130299   0.209955     0.61 (  68->  74)    0.16 (  69->  74)    0.13 (  67->  74)
 104   8.308     149.2   0.007036   0.007715  -11.671336  -11.833248     0.07 (  71->  78)    0.06 (  70->  90)    0.05 (  47->  73)
 105   8.327     148.9   0.023245   0.023614  20.622273  22.550001     0.05 (  52->  73)    0.05 (  61->  79)    0.05 (  69->  79)
 106   8.337     148.7   0.009228   0.008856   6.210681   5.017146     0.18 (  61->  79)    0.16 (  69->  79)    0.12 (  67->  79)
 107   8.345     148.6   0.016299   0.014103  33.263926  32.954728     0.45 (  71->  78)    0.10 (  57->  74)    0.02 (  67->  78)
 108   8.353     148.4   0.061892   0.059199  -40.256040  -40.729783     0.30 (  57->  74)    0.10 (  71->  78)    0.06 (  62->  74)
 109   8.365     148.2   0.000914   0.000733  -4.670096  -4.213150     0.16 (  40->  72)    0.09 (  52->  73)    0.06 (  43->  72)
 110   8.377     148.0   0.035019   0.033582   2.973224   0.387873     0.18 (  68->  76)    0.10 (  57->  74)    0.08 (  71->  78)
 111   8.414     147.4   0.012252   0.012584  -15.165181  -14.915360     0.10 (  68->  76)    0.06 (  52->  73)    0.05 (  71->  78)
 112   8.438     146.9   0.050129   0.046694  -22.367058  -20.774851     0.08 (  71->  92)    0.06 (  71->  93)    0.06 (  71->  91)
 113   8.453     146.7   0.124882   0.115304  -35.176365  -34.101350     0.22 (  38->  72)    0.20 (  61->  78)    0.04 (  53->  76)
 114   8.465     146.5   0.003273   0.003259   7.882562   7.438593     0.10 (  47->  73)    0.08 (  52->  73)    0.08 (  54->  77)
 115   8.496     145.9   0.015826   0.013424  -13.761262  -12.795781     0.19 (  70->  93)    0.07 (  71->  96)    0.07 (  68->  82)
 116   8.520     145.5   0.038253   0.038769  -31.688951  -32.546739     0.08 (  65->  81)    0.08 (  55->  73)    0.05 (  58->  75)
 117   8.536     145.3   0.022151   0.019299  -7.249648  -5.786101     0.16 (  63->  75)    0.07 (  68->  83)    0.04 (  65->  75)
 118   8.575     144.6   0.045249   0.039655  -43.224469  -40.313915     0.07 (  67->  89)    0.06 (  71->  99)    0.04 (  68->  91)
 119   8.602     144.1   0.065144   0.060241  -37.310728  -35.219129     0.16 (  71->  97)    0.05 (  71->  98)    0.04 (  70->  92)
 120   8.609     144.0   0.003931   0.003652   2.082736   1.912723     0.45 (  64->  73)    0.12 (  62->  73)    0.09 (  64->  75)
 121   8.653     143.3   0.002254   0.002057  -3.582041  -3.681024     0.34 (  53->  74)    0.26 (  49->  74)    0.21 (  61->  74)
 122   8.659     143.2   0.152304   0.146190  -18.231031  -18.373438     0.10 (  65->  81)    0.06 (  50->  73)    0.05 (  70->  78)
 123   8.682     142.8   0.128433   0.116213  50.130774  47.316292     0.18 (  70->  78)    0.10 (  65->  80)    0.04 (  58->  80)
 124   8.685     142.8   0.003308   0.003162  -4.223640  -4.314310     0.18 (  65->  81)    0.05 (  61->  76)    0.04 (  69->  85)
 125   8.689     142.7   0.053878   0.052731  21.314592  20.922359     0.35 (  70->  78)    0.05 (  58->  80)    0.03 (  61->  76)
 126   8.699     142.5   0.037542   0.034197   8.535939   7.209381     0.32 (  70->  78)    0.05 (  58->  80)    0.03 (  56->  80)
 127   8.716     142.2   0.026679   0.025432   0.611878   0.898550     0.22 (  64->  87)    0.10 (  64->  86)    0.10 (  64->  85)
 128   8.732     142.0   0.020829   0.018706  24.921836  23.713330     0.15 (  50->  73)    0.07 (  65->  81)    0.05 (  56->  80)
 129   8.746     141.8   0.009303   0.008893  -11.021729  -11.051418     0.50 (  71->  79)    0.05 (  69->  94)    0.05 (  67->  79)
 130   8.774     141.3   0.008951   0.008163   8.920201   7.958437     0.07 (  70->  96)    0.07 (  70->  97)    0.06 (  70->  95)
 131   8.781     141.2   0.011372   0.010301  -1.156992  -1.321597     0.19 (  62->  79)    0.16 (  64->  79)    0.06 (  57->  79)
 132   8.798     140.9   0.003854   0.003733  -4.498157  -4.338044     0.10 (  66->  73)    0.08 (  71->  79)    0.05 (  66->  75)
 133   8.802     140.9   0.007045   0.006919   2.756132   2.516601     0.08 (  70->  96)    0.05 (  71-> 101)    0.05 (  71-> 100)
 134   8.808     140.8   0.001643   0.001448  -11.752395  -11.064289     0.09 (  47->  72)    0.08 (  56->  72)    0.06 (  57->  75)
 135   8.830     140.4   0.018088   0.016773   7.582572   7.806286     0.20 (  66->  73)    0.10 (  66->  75)    0.07 (  71->  79)
 136   8.842     140.2   0.003044   0.003383  -3.389881  -4.119279     0.18 (  71->  79)    0.17 (  67->  79)    0.07 (  69->  94)
 137   8.860     139.9   0.039531   0.035229  -5.953570  -2.956695     0.07 (  71->  79)    0.06 (  65->  82)    0.03 (  71->  93)
 138   8.872     139.7   0.000326   0.000309  -1.552101  -0.766834     0.28 (  56->  72)    0.27 (  58->  72)    0.05 (  38->  72)
 139   8.887     139.5   0.000911   0.000846  -4.210308  -5.521540     0.20 (  38->  72)    0.11 (  61->  78)    0.08 (  56->  72)
 140   8.920     139.0   0.002037   0.002072   2.409470   3.520759     0.18 (  54->  77)    0.11 (  59->  77)    0.11 (  52->  77)
 141   8.933     138.8   0.001302   0.001365  -4.283597  -3.864875     0.09 (  47->  75)    0.07 (  62->  73)    0.06 (  47->  72)
 142   8.941     138.7   0.033921   0.030100  -2.306782  -2.165052     0.25 (  69->  77)    0.11 (  68->  77)    0.08 (  66->  73)
 143   8.970     138.2   0.004409   0.003952  -4.111275  -3.481804     0.21 (  62->  73)    0.13 (  64->  73)    0.12 (  62->  75)
 144   8.971     138.2   0.020425   0.017838   4.014620   4.656276     0.11 (  65->  82)    0.10 (  70->  93)    0.06 (  71->  96)
 145   8.978     138.1   0.021621   0.018946  18.540866  18.862246     0.06 (  70->  97)    0.06 (  68->  84)    0.04 (  67->  86)
 146   9.008     137.6   0.062987   0.057365  21.128262  14.566320     0.10 (  69->  94)    0.06 (  49->  74)    0.04 (  68->  94)
 147   9.022     137.4   0.137939   0.128041  84.677548  83.206982     0.06 (  49->  74)    0.06 (  48->  74)    0.06 (  69->  94)
 148   9.044     137.1   0.173188   0.163456  -117.605361  -113.831398     0.07 (  61->  78)    0.05 (  64->  89)    0.05 (  48->  74)
 149   9.075     136.6   0.005607   0.004417  15.152744  14.189810     0.32 (  55->  72)    0.13 (  34->  72)    0.09 (  35->  72)
 150   9.093     136.3   0.024890   0.022442  -5.198817  -4.794632     0.10 (  64->  89)    0.08 (  67->  85)    0.05 (  64->  88)
 151   9.104     136.2   0.002285   0.002850   0.864903   0.743815     0.05 (  70->  96)    0.04 (  63->  80)    0.04 (  68->  84)
 152   9.116     136.0   0.002927   0.002700  -2.060595  -1.925868     0.77 (  70->  79)    0.05 (  49->  74)    0.01 (  61->  74)
 153   9.122     135.9   0.004479   0.003817   7.917851   7.373775     0.18 (  49->  74)    0.11 (  70->  79)    0.04 (  61->  74)
 154   9.129     135.8   0.051453   0.048600  37.729788  41.331293     0.17 (  55->  72)    0.11 (  64->  89)    0.05 (  34->  72)
 155   9.135     135.7   0.059173   0.055921   3.145664  -1.514210     0.16 (  55->  72)    0.12 (  64->  89)    0.07 (  67->  85)
 156   9.138     135.7   0.000870   0.000816  -2.833711  -2.614291     0.08 (  55->  72)    0.03 (  71-> 100)    0.03 (  34->  72)
 157   9.153     135.5   0.033265   0.031445   4.755741   4.327869     0.23 (  61->  73)    0.09 (  69->  77)    0.07 (  61->  75)
 158   9.168     135.2   0.010519   0.009958  -9.365457  -8.800486     0.13 (  54->  72)    0.05 (  69->  94)    0.05 (  49->  74)
 159   9.176     135.1   0.003529   0.003071   4.539281   4.416034     0.26 (  54->  72)    0.07 (  69->  94)    0.05 (  49->  74)
 160   9.187     135.0   0.002563   0.002229  -2.976534  -2.619587     0.41 (  54->  72)    0.05 (  51->  77)    0.04 (  58->  80)
 161   9.209     134.6   0.004790   0.003515  -4.625947  -4.346670     0.26 (  70->  99)    0.10 (  65->  82)    0.06 (  70-> 102)
 162   9.243     134.1   0.008536   0.007026   6.088426   5.799656     0.26 (  54->  80)    0.07 (  54->  77)    0.05 (  52->  77)
 163   9.256     134.0   0.010784   0.009349  -8.021806  -6.844076     0.05 (  71->  99)    0.04 (  67->  92)    0.03 (  67->  87)
 164   9.274     133.7   0.003761   0.003725  -14.601835  -14.647480     0.10 (  60->  73)    0.10 (  34->  72)    0.05 (  59->  75)
 165   9.281     133.6   0.005912   0.004956  16.643038  16.836767     0.14 (  54->  80)    0.10 (  52->  77)    0.05 (  59->  73)
 166   9.320     133.0   0.005735   0.005685  -16.704848  -16.573795     0.09 (  68->  78)    0.07 (  67->  81)    0.06 (  67->  86)
 167   9.333     132.8   0.000142   0.000129   0.347981   0.324286     0.89 (  65->  74)    0.03 (  63->  74)    0.01 (  68->  74)
 168   9.336     132.8   0.007400   0.006124  32.350048  29.131502     0.14 (  67->  80)    0.06 (  55->  77)    0.04 (  67->  81)
 169   9.350     132.6   0.000312   0.000265  -3.042632  -2.678764     0.24 (  64->  85)    0.21 (  64->  86)    0.07 (  34->  72)
 170   9.357     132.5   0.001341   0.001061   0.441852  -0.058476     0.14 (  57->  78)    0.08 (  35->  72)    0.06 (  34->  72)
 171   9.362     132.4   0.007377   0.006824   4.247393   5.039320     0.07 (  51->  77)    0.05 (  55->  77)    0.04 (  68->  78)
 172   9.376     132.2   0.046177   0.041939  -71.935466  -68.699397     0.11 (  68->  78)    0.06 (  51->  77)    0.05 (  50->  77)
 173   9.381     132.2   0.060170   0.052084   3.084020   0.260490     0.15 (  51->  77)    0.08 (  53->  78)    0.04 (  68->  78)
 174   9.396     132.0   0.010810   0.010025   3.309511   5.773037     0.32 (  66->  89)    0.09 (  66->  87)    0.07 (  66->  86)
 175   9.404     131.8   0.106958   0.092598  33.408987  33.566492     0.20 (  53->  78)    0.12 (  68->  78)    0.06 (  48->  74)
 176   9.414     131.7   0.003711   0.002932  17.883353  16.091582     0.16 (  65->  76)    0.07 (  57->  78)    0.07 (  59->  76)
 177   9.433     131.4   0.005244   0.004933   6.620837   6.156174     0.13 (  68->  78)    0.05 (  71->  85)    0.04 (  65->  83)
 178   9.444     131.3   0.003865   0.003348  -1.313424  -0.970405     0.09 (  50->  77)    0.07 (  63->  80)    0.06 (  65->  76)
 179   9.468     130.9   0.005419   0.005090  -7.207948  -6.955920     0.28 (  57->  78)    0.12 (  34->  72)    0.08 (  65->  76)
 180   9.495     130.6   0.019675   0.018789   6.300359   5.930870     0.09 (  67->  80)    0.05 (  67->  81)    0.04 (  67->  94)
 181   9.503     130.5   0.003620   0.003364  -9.469347  -9.480115     0.05 (  70-> 100)    0.04 (  70->  85)    0.03 (  68->  85)
 182   9.544     129.9   0.006210   0.006269   5.373143   6.261759     0.07 (  70->  99)    0.07 (  70-> 100)    0.05 (  71-> 104)
 183   9.567     129.6   0.003174   0.002537  -4.584380  -6.056809     0.10 (  43->  73)    0.07 (  54->  75)    0.05 (  33->  72)
 184   9.584     129.4   0.010037   0.009146  -1.786641  -2.246474     0.08 (  47->  75)    0.07 (  46->  75)    0.05 (  54->  75)
 185   9.594     129.2   0.021829   0.022484  14.920085  14.912284     0.04 (  70-> 102)    0.04 (  70->  92)    0.03 (  65->  76)
 186   9.612     129.0   0.073474   0.070672  -42.474705  -36.596618     0.09 (  62->  89)    0.03 (  67->  95)    0.03 (  67->  96)
 187   9.620     128.9   0.028866   0.025504  28.061249  22.272577     0.11 (  61->  89)    0.05 (  69->  99)    0.05 (  69->  92)
 188   9.637     128.7   0.009360   0.008308  -11.559367  -11.887733     0.07 (  48->  76)    0.06 (  59->  76)    0.05 (  51->  72)
 189   9.642     128.6   0.034002   0.031228  13.283996  14.434017     0.06 (  62->  89)    0.03 (  48->  76)    0.03 (  51->  72)
 190   9.664     128.3   0.004324   0.004138   1.758809   0.246000     0.07 (  43->  73)    0.06 (  59->  76)    0.05 (  65->  76)
 191   9.685     128.0   0.010089   0.009450  24.976533  24.940621     0.09 (  63->  80)    0.07 (  68->  88)    0.05 (  70-> 100)
 192   9.688     128.0   0.032003   0.027935  -15.344681  -13.544237     0.06 (  65->  83)    0.05 (  51->  72)    0.04 (  71-> 106)
 193   9.703     127.8   0.002270   0.001824   5.442544   3.384016     0.49 (  51->  72)    0.07 (  52->  72)    0.06 (  50->  72)
 194   9.727     127.5   0.024123   0.021145   1.282136   0.651502     0.04 (  71-> 100)    0.04 (  71-> 101)    0.03 (  71-> 103)
 195   9.744     127.2   0.017005   0.014495  -18.128333  -16.386246     0.18 (  49->  76)    0.08 (  53->  75)    0.05 (  49->  75)
 196   9.763     127.0   0.001228   0.001015   9.420891   7.000418     0.08 (  44->  73)    0.05 (  42->  73)    0.05 (  54->  80)
 197   9.782     126.7   0.011988   0.009689  19.555136  17.333543     0.06 (  44->  73)    0.05 (  65->  83)    0.04 (  71-> 100)
 198   9.798     126.5   0.028132   0.025913  -30.728539  -28.862052     0.12 (  63->  81)    0.04 (  69->  81)    0.03 (  69->  80)
 199   9.807     126.4   0.001953   0.001484  -2.024626  -1.689101     0.12 (  69->  80)    0.06 (  68->  80)    0.05 (  65->  83)
 200   9.817     126.3   0.015546   0.014522  -5.762676  -4.865140     0.05 (  68->  79)    0.05 (  65->  83)    0.05 (  63->  83)
 201   9.829     126.1   0.023463   0.019355  -7.031491  -7.522994     0.07 (  68->  92)    0.06 (  71-> 102)    0.05 (  71-> 101)
 202   9.843     126.0   0.006338   0.006077  16.719805  15.512101     0.05 (  53->  76)    0.04 (  68->  79)    0.04 (  69->  80)
 203   9.851     125.9   0.001380   0.001257   3.031025   2.953727     0.64 (  52->  72)    0.12 (  51->  72)    0.01 (  50->  72)
 204   9.858     125.8   0.003941   0.003656  -6.564033  -6.014909     0.28 (  63->  74)    0.14 (  59->  74)    0.09 (  68->  79)
 205   9.873     125.6   0.006310   0.005921  -4.011667  -3.559796     0.20 (  63->  74)    0.14 (  68->  79)    0.11 (  59->  74)
 206   9.878     125.5   0.016629   0.015739   0.112409   0.041417     0.17 (  68->  79)    0.05 (  67->  79)    0.04 (  69->  79)
 207   9.884     125.4   0.011868   0.009912   7.169548   6.504912     0.05 (  66->  85)    0.05 (  67->  81)    0.03 (  58->  76)
 208   9.889     125.4   0.000336   0.000278   1.725770   1.803027     0.15 (  60->  73)    0.09 (  60->  75)    0.08 (  57->  73)
 209   9.896     125.3   0.001135   0.001030  14.594100  13.890103     0.15 (  69-> 102)    0.15 (  69-> 101)    0.10 (  69->  98)
 210   9.905     125.2   0.014678   0.012634  -4.117932  -3.276886     0.08 (  50->  72)    0.04 (  66->  86)    0.04 (  67->  81)
 211   9.914     125.1   0.004877   0.004559   1.763401   1.023804     0.10 (  50->  72)    0.04 (  55->  80)    0.04 (  70-> 100)
 212   9.923     125.0   0.001634   0.001789  -0.688653  -0.788345     0.49 (  50->  72)    0.05 (  51->  72)    0.02 (  50->  77)
 213   9.934     124.8   0.026201   0.022787  -13.167786  -12.382140     0.09 (  50->  72)    0.05 (  50->  77)    0.04 (  71->  85)
 214   9.938     124.8   0.005906   0.005555  22.621231  21.705568     0.05 (  62->  85)    0.03 (  60->  73)    0.03 (  62->  86)
 215   9.951     124.6   0.005118   0.004791  -2.978535  -2.984233     0.18 (  57->  79)    0.05 (  62->  86)    0.04 (  62->  85)
 216   9.960     124.5   0.015742   0.014483   9.995875   9.961561     0.08 (  57->  79)    0.05 (  62->  85)    0.04 (  62->  86)
 217   9.980     124.2   0.005111   0.004041  -7.933687  -7.149724     0.10 (  70->  86)    0.06 (  70->  85)    0.05 (  70->  84)
 218   9.993     124.1   0.035514   0.031653  24.206324  23.137330     0.10 (  71->  85)    0.03 (  65->  87)    0.03 (  59->  74)
 219   9.996     124.0   0.006266   0.005597   5.807376   5.411755     0.26 (  59->  74)    0.22 (  63->  74)    0.13 (  60->  74)

sTD-DFT done

Total run time:       26.992 sec

           *** ORCA-CIS/TD-DFT FINISHED WITHOUT ERROR ***


-------------------------------------------------------------------------------
                          DFT DISPERSION CORRECTION                            
                                                                               
                              DFTD3 V3.1  Rev 1                                
                              USING zero damping                               
-------------------------------------------------------------------------------
The omegaB97X-D3 functional is recognized. Fit by Chai et al.
Active option DFTDOPT                   ...         3   

molecular C6(AA) [au] = 31767.122293 


            DFT-D V3
 parameters
 s6 scaling factor         :     1.0000 
 rs6 scaling factor        :     1.2810 
 s8 scaling factor         :     1.0000 
 rs8 scaling factor        :     1.0940 
 Damping factor alpha6     :    14.0000 
 Damping factor alpha8     :    16.0000 
 ad hoc parameters k1-k3   :    16.0000     1.3333    -4.0000 

 Edisp/kcal,au: -12.133433180445  -0.019335854497 
 E6   /kcal   :  -5.654417218 
 E8   /kcal   :  -6.479015962 
 % E8         :  53.398043786 

-------------------------   ----------------
Dispersion correction           -0.019335854
-------------------------   ----------------


-------------------------   --------------------
FINAL SINGLE POINT ENERGY     -1760.773519274848
-------------------------   --------------------


                            ***************************************
                            *     ORCA property calculations      *
                            ***************************************

                                    ---------------------
                                    Active property flags
                                    ---------------------
   (+) Dipole Moment
   (+) Quadrupole Moment


------------------------------------------------------------------------------
                       ORCA ELECTRIC PROPERTIES CALCULATION
------------------------------------------------------------------------------

Dipole Moment Calculation                       ... on
Quadrupole Moment Calculation                   ... on
Polarizability Calculation                      ... off
GBWName                                         ... total_job2.gbw
Electron density file                           ... total_job2.scfp.tmp

-------------
DIPOLE MOMENT
-------------
                                X             Y             Z
Electronic contribution:     27.73191      11.17908       2.90391
Nuclear contribution   :    -28.96411     -13.59700      -3.34317
                        -----------------------------------------
Total Dipole Moment    :     -1.23220      -2.41792      -0.43926
                        -----------------------------------------
Magnitude (a.u.)       :      2.74911
Magnitude (Debye)      :      6.98769


------------------------
QUADRUPOLE MOMENT (A.U.)
------------------------

                XX           YY           ZZ           XY           XZ           YZ
  NUC     22341.74305   2712.59264    234.05673   2683.63369     13.67527   -284.26194
  EL     -22445.75320  -2842.38616   -377.97262  -2681.25064    -13.92989    280.82586
  TOT      -104.01015   -129.79352   -143.91589      2.38305     -0.25461     -3.43608

--------------------------------------------------------------------------
[[59595,1],8]: A high-performance Open MPI point-to-point messaging module
was unable to find any relevant network interfaces:

Module: OpenFabrics (openib)
  Host: cx1-108-9-3

Another transport will be used instead, although this may result in
lower performance.
--------------------------------------------------------------------------

Timings for individual modules:

Sum of individual times         ...      160.525 sec (=   2.675 min)
GTO integral calculation        ...        5.640 sec (=   0.094 min)   3.5 %
SCF iterations                  ...      127.262 sec (=   2.121 min)  79.3 %
CIS module                      ...       27.623 sec (=   0.460 min)  17.2 %



                             ****ORCA TERMINATED NORMALLY****
TOTAL RUN TIME: 0 days 0 hours 11 minutes 27 seconds 8 msec
