   49
Geometry Step: 2209
    C      5.08271272      1.38868983     -2.56757997      4.11577420
    C      4.53153534      0.74068515     -1.46516155      4.08036054
    C      5.38369536      0.06599431     -0.57026463      4.02996421
    C      6.78370956      0.08330789     -0.82585550      3.86745451
    C      7.34106944      0.72955284     -1.93983391      4.16550691
    C      6.46814918      1.38119022     -2.80731400      4.06793247
    C      5.19734078     -0.67799177      0.66597096      4.04271901
    C      6.50373182     -1.05369893      1.09913018      3.86852379
    N      7.43597779     -0.60323483      0.18327688      5.17521609
    C      6.74569216     -1.75123896      2.29167949      4.16126731
    C      5.64329731     -2.06782940      3.08272826      4.07270698
    C      4.34855097     -1.71110464      2.68607023      4.13638735
    C      4.08620326     -1.03392446      1.47945352      3.97604424
    H      3.51140205     -1.98922935      3.32230682      0.91526362
    H      8.43820095     -0.72600295      0.25955074      0.78458803
    H      5.78530229     -2.60102697      4.01832915      0.91709584
    H      3.45744085      0.75598131     -1.30520277      0.89610854
    H      8.41371056      0.72484692     -2.11422468      0.91859117
    H      6.86286292      1.89319927     -3.68094375      0.92237852
    H      4.42913265      1.90992497     -3.26172046      0.91985810
    S     -2.23661725      0.11862337     -0.15044592      6.03349649
    C     -1.11912016     -0.12013842      1.20096736      3.83648316
    N     -1.71003498     -0.07440363      2.38686289      5.17856611
    N     -3.05481515      0.15820738      2.31239038      5.19033819
    C     -3.51818241      0.27322655      1.07371308      3.81454589
    C      0.29499133     -0.35176459      1.01065601      3.83253326
    N      0.87862115     -0.40734432     -0.17906801      5.18559787
    N      2.22570340     -0.63611354     -0.11045247      5.18475297
    C      2.69160704     -0.75183763      1.12367042      3.80864714
    S      1.41584397     -0.59206652      2.35733174      6.04060069
    C     -7.57492304      1.55979723      0.46479621      4.07953564
    C     -6.98604489      0.74248130     -0.53435919      4.02489756
    C     -5.65124320      0.24820122     -0.37200357      3.95407988
    C     -4.92144450      0.63145166      0.80877361      4.00374344
    C     -5.55383797      1.41307942      1.77546730      4.07923475
    C     -6.87326800      1.87282744      1.61089312      4.09543125
    C     -5.13282392     -0.62933259     -1.36782543      4.15840830
    C     -5.87350692     -0.96140718     -2.48480819      4.05541470
    C     -7.17302523     -0.44516167     -2.67911620      4.23748765
    C     -7.71869616      0.38591816     -1.71040903      3.68195715
    O     -8.97734429      0.88004990     -1.85129490      6.46575579
    H     -7.74535181     -0.71021821     -3.56422354      0.91503908
    H     -4.99916455      1.68795518      2.66887484      0.90722392
    H     -7.32656598      2.48881072      2.38270775      0.91580381
    H     -5.45583628     -1.63529970     -3.22735205      0.91445162
    H     -4.14971381     -1.07163300     -1.24521358      0.90742231
    H     -9.37182933      0.56754061     -2.67643994      0.64602545
    H      7.75413066     -2.02332440      2.59028685      0.91502638
    H     -8.58722567      1.92358476      0.31462546      0.90375814
