
                                 *****************
                                 * O   R   C   A *
                                 *****************

           --- An Ab Initio, DFT and Semiempirical electronic structure package ---

                  #######################################################
                  #                        -***-                        #
                  #  Department of molecular theory and spectroscopy    #
                  #              Directorship: Frank Neese              #
                  # Max Planck Institute for Chemical Energy Conversion #
                  #                  D-45470 Muelheim/Ruhr              #
                  #                       Germany                       #
                  #                                                     #
                  #                  All rights reserved                #
                  #                        -***-                        #
                  #######################################################


                         Program Version 4.0.0 -  RELEASE  -


 With contributions from (in alphabetic order):
   Daniel Aravena         : Magnetic Properties
   Michael Atanasov       : Ab Initio Ligand Field Theory
   Ute Becker             : Parallelization
   Martin Brehm           : Molecular dynamics
   Dmytro Bykov           : SCF Hessian
   Vijay G. Chilkuri      : MRCI spin determinant printing
   Dipayan Datta          : RHF DLPNO-CCSD density
   Achintya Kumar Dutta   : EOM-CC, STEOM-CC
   Dmitry Ganyushin       : Spin-Orbit,Spin-Spin,Magnetic field MRCI
   Yang Guo               : DLPNO-NEVPT2, CIM, IAO-localization
   Andreas Hansen         : Spin unrestricted coupled pair/coupled cluster methods
   Lee Huntington         : MR-EOM, pCC
   Robert Izsak           : Overlap fitted RIJCOSX, COSX-SCS-MP3, EOM
   Christian Kollmar      : KDIIS, OOCD, Brueckner-CCSD(T), CCSD density
   Simone Kossmann        : Meta GGA functionals, TD-DFT gradient, OOMP2, MP2 Hessian
   Martin Krupicka        : AUTO-CI
   Dagmar Lenk            : GEPOL surface
   Dimitrios Liakos       : Extrapolation schemes; parallel MDCI
   Dimitrios Manganas     : ROCIS; embedding schemes
   Dimitrios Pantazis     : SARC Basis sets
   Taras Petrenko         : DFT Hessian,TD-DFT gradient, ASA, ECA, R-Raman, ABS, FL, XAS/XES, NRVS
   Peter Pinski           : DLPNO-MP2
   Christoph Reimann      : Effective Core Potentials
   Marius Retegan         : Local ZFS, SOC
   Christoph Riplinger    : Optimizer, TS searches, QM/MM, DLPNO-CCSD(T), (RO)-DLPNO pert. Triples
   Tobias Risthaus        : Range-separated hybrids, TD-DFT gradient, RPA, STAB
   Michael Roemelt        : Restricted open shell CIS
   Masaaki Saitow         : Open-shell DLPNO
   Barbara Sandhoefer     : DKH picture change effects
   Kantharuban Sivalingam : CASSCF convergence, NEVPT2, FIC-MRCI
   Georgi Stoychev        : AutoAux
   Boris Wezisla          : Elementary symmetry handling
   Frank Wennmohs         : Technical directorship


 We gratefully acknowledge several colleagues who have allowed us to
 interface, adapt or use parts of their codes:
   Stefan Grimme, W. Hujo, H. Kruse,             : VdW corrections, initial TS optimization,
                  C. Bannwarth                     DFT functionals, gCP, sTDA/sTD-DF
   Ed Valeev                                     : LibInt (2-el integral package), F12 methods
   Garnet Chan, S. Sharma, J. Yang, R. Olivares  : DMRG
   Ulf Ekstrom                                   : XCFun DFT Library
   Mihaly Kallay                                 : mrcc  (arbitrary order and MRCC methods)
   Jiri Pittner, Ondrej Demel                    : Mk-CCSD
   Frank Weinhold                                : gennbo (NPA and NBO analysis)
   Christopher J. Cramer and Donald G. Truhlar   : smd solvation model


 Your calculation uses the libint2 library for the computation of 2-el integrals
 For citations please refer to: http://libint.valeyev.net

 This ORCA versions uses:
   CBLAS   interface :  Fast vector & matrix operations
   LAPACKE interface :  Fast linear algebra routines
   SCALAPACK package :  Parallel linear algebra routines


Your calculation utilizes the atom-pairwise dispersion correction
with the zero-damping scheme (D30)
Cite in your paper:
S.Grimme, J.Antony, S.Ehrlich and H.Krieg, J.Chem.Phys., 132, (2010), 154104 
   

XCFun DFT library Copyright 2009-2010 Ulf Ekstrom and contributors.
See http://admol.org/xcfun for more information. This is free soft-
ware; see the source code for copying conditions. There is ABSOLUTELY
NO WARRANTY; not even for MERCHANTABILITY or FITNESS FOR A PARTICULAR
PURPOSE. For details see the documentation. Scientific users of this 
library should cite U. Ekstrom, L. Visscher, R. Bast, A. J. Thorvald-
sen and K. Ruud; J.Chem.Theor.Comp. 2010, DOI: 10.1021/ct100117s
XCFun Version 0.99 
Your calculation utilizes the basis: def2-TZVP
   F. Weigend and R. Ahlrichs, Phys. Chem. Chem. Phys. 7, 3297 (2005).

Your calculation utilizes the auxiliary basis: def2/J
   F. Weigend, Phys. Chem. Chem. Phys. 8, 1057 (2006).

================================================================================
                                        WARNINGS
                       Please study these warnings very carefully!
================================================================================

Warning: TCutStore was < 0. Adjusted to Thresh (uncritical)
INFO   : Checking CIS options ...

WARNING: CIS/ROCIS methods need fully converged wavefunctions
  ===> : Setting SCFConvForced true
         You can overwrite this default with %scf ConvForced false 


INFO   : the flag for use of LIBINT has been found!

Your calculation utilizes the atom-pairwise dispersion correction
with the zero-damping scheme (D30)
Cite in your paper:
S.Grimme, J.Antony, S.Ehrlich and H.Krieg, J.Chem.Phys., 132, (2010), 154104 
   

XCFun DFT library Copyright 2009-2010 Ulf Ekstrom and contributors.
See http://admol.org/xcfun for more information. This is free soft-
ware; see the source code for copying conditions. There is ABSOLUTELY
NO WARRANTY; not even for MERCHANTABILITY or FITNESS FOR A PARTICULAR
PURPOSE. For details see the documentation. Scientific users of this 
library should cite U. Ekstrom, L. Visscher, R. Bast, A. J. Thorvald-
sen and K. Ruud; J.Chem.Theor.Comp. 2010, DOI: 10.1021/ct100117s
XCFun Version 0.99 
Your calculation utilizes the basis: def2-TZVP
   F. Weigend and R. Ahlrichs, Phys. Chem. Chem. Phys. 7, 3297 (2005).

Your calculation utilizes the auxiliary basis: def2/J
   F. Weigend, Phys. Chem. Chem. Phys. 8, 1057 (2006).

================================================================================
                                        WARNINGS
                       Please study these warnings very carefully!
================================================================================

INFO   : Checking CIS options ...

INFO   : the flag for use of LIBINT has been found!

================================================================================
                                       INPUT FILE
================================================================================
NAME = total.inp
|  1> # 
|  2> !wB97X-D3 def2-TZVP def2/J RIJCOSX Grid5 FinalGrid6 TightSCF
|  3> %pal 
|  4>  nprocs 24
|  5> end
|  6> %tddft
|  7>   Mode sTDDFT
|  8>   nroots 2
|  9>   Ethresh 10.0
| 10>   maxcore 5000
| 11>   triplets true
| 12> end
| 13> * xyz 0 1 
| 14> C -5.29946575 2.96521058 -1.51440560
| 15> C -4.86946461 1.83313755 -0.82680037
| 16> C -5.80619892 0.83895691 -0.48766785
| 17> C -7.17332392 1.05472514 -0.82088456
| 18> C -7.60881534 2.19207032 -1.51826461
| 19> C -6.64948343 3.13932687 -1.86686920
| 20> C -5.75056267 -0.42330384 0.23205861
| 21> C -7.09711954 -0.87945916 0.33357695
| 22> N -7.92917925 0.00584354 -0.32774387
| 23> C -7.45697847 -2.04273314 1.03055026
| 24> C -6.43686046 -2.75594472 1.65654585
| 25> C -5.10117895 -2.34278818 1.55730403
| 26> C -4.72422996 -1.19736114 0.83264796
| 27> H -4.32359867 -2.93529547 2.03068905
| 28> H -8.93646137 -0.07499792 -0.39325929
| 29> H -6.67506309 -3.65495159 2.21803148
| 30> H -3.82403346 1.74066944 -0.54681511
| 31> H -8.65738660 2.33192932 -1.76686777
| 32> H -6.94979395 4.03368693 -2.40607684
| 33> H -4.57919009 3.73388308 -1.78005502
| 34> S 1.85276536 -0.49232436 0.34236230
| 35> C 2.63926328 -0.02792114 -1.17469427
| 36> N 1.78554382 0.18061472 -2.17267780
| 37> N 0.48164246 -0.00802344 -1.81595135
| 38> C 0.32442167 -0.36125516 -0.54568781
| 39> C -0.95878837 -0.61713052 0.06716989
| 40> N -1.11523124 -0.96288785 1.33764389
| 41> N -2.42410802 -1.15389097 1.68864403
| 42> C -3.28227474 -0.92966061 0.70444590
| 43> S -2.48422796 -0.48578005 -0.82048548
| 44> S 12.14678414 0.13079127 0.73430259
| 45> C 10.37176395 0.01897046 0.68367488
| 46> C 9.71916327 -0.33304912 1.82023727
| 47> S 10.68660452 -0.65697615 3.27782590
| 48> C 12.33534246 -0.33417886 2.51145414
| 49> S 7.94825991 -0.44236525 1.76134352
| 50> C 7.82875750 0.01440816 0.03269670
| 51> S 9.39954874 0.34065785 -0.76688860
| 52> C 6.64073547 0.10550952 -0.61800430
| 53> S 6.50310461 0.55976728 -2.34210610
| 54> C 4.74812070 0.45572142 -2.41711883
| 55> C 4.07727437 0.10363047 -1.28514373
| 56> S 5.06572685 -0.21721937 0.16725312
| 57> H 12.96308280 -1.22917852 2.59458180
| 58> H 12.84276189 0.47301670 3.05270699
| 59> H -8.49250515 -2.36579086 1.08992094
| 60> H 4.24475622 0.67203987 -3.35369970
| 61> *
| 62> $new_job
| 63> # 
| 64> !wB97X-D3 def2-TZVP def2/J RIJCOSX Grid5 FinalGrid6 TightSCF
| 65> %pal 
| 66>  nprocs 24
| 67> end
| 68> %elprop
| 69>    dipole     true
| 70>    quadrupole true
| 71> end
| 72> %tddft
| 73>   Mode sTDDFT
| 74>   nroots 2
| 75>   Ethresh 10.0
| 76>   maxcore 5000
| 77> end
| 78> * xyz 0 1 
| 79> C -5.29946575 2.96521058 -1.51440560
| 80> C -4.86946461 1.83313755 -0.82680037
| 81> C -5.80619892 0.83895691 -0.48766785
| 82> C -7.17332392 1.05472514 -0.82088456
| 83> C -7.60881534 2.19207032 -1.51826461
| 84> C -6.64948343 3.13932687 -1.86686920
| 85> C -5.75056267 -0.42330384 0.23205861
| 86> C -7.09711954 -0.87945916 0.33357695
| 87> N -7.92917925 0.00584354 -0.32774387
| 88> C -7.45697847 -2.04273314 1.03055026
| 89> C -6.43686046 -2.75594472 1.65654585
| 90> C -5.10117895 -2.34278818 1.55730403
| 91> C -4.72422996 -1.19736114 0.83264796
| 92> H -4.32359867 -2.93529547 2.03068905
| 93> H -8.93646137 -0.07499792 -0.39325929
| 94> H -6.67506309 -3.65495159 2.21803148
| 95> H -3.82403346 1.74066944 -0.54681511
| 96> H -8.65738660 2.33192932 -1.76686777
| 97> H -6.94979395 4.03368693 -2.40607684
| 98> H -4.57919009 3.73388308 -1.78005502
| 99> S 1.85276536 -0.49232436 0.34236230
|100> C 2.63926328 -0.02792114 -1.17469427
|101> N 1.78554382 0.18061472 -2.17267780
|102> N 0.48164246 -0.00802344 -1.81595135
|103> C 0.32442167 -0.36125516 -0.54568781
|104> C -0.95878837 -0.61713052 0.06716989
|105> N -1.11523124 -0.96288785 1.33764389
|106> N -2.42410802 -1.15389097 1.68864403
|107> C -3.28227474 -0.92966061 0.70444590
|108> S -2.48422796 -0.48578005 -0.82048548
|109> S 12.14678414 0.13079127 0.73430259
|110> C 10.37176395 0.01897046 0.68367488
|111> C 9.71916327 -0.33304912 1.82023727
|112> S 10.68660452 -0.65697615 3.27782590
|113> C 12.33534246 -0.33417886 2.51145414
|114> S 7.94825991 -0.44236525 1.76134352
|115> C 7.82875750 0.01440816 0.03269670
|116> S 9.39954874 0.34065785 -0.76688860
|117> C 6.64073547 0.10550952 -0.61800430
|118> S 6.50310461 0.55976728 -2.34210610
|119> C 4.74812070 0.45572142 -2.41711883
|120> C 4.07727437 0.10363047 -1.28514373
|121> S 5.06572685 -0.21721937 0.16725312
|122> H 12.96308280 -1.22917852 2.59458180
|123> H 12.84276189 0.47301670 3.05270699
|124> H -8.49250515 -2.36579086 1.08992094
|125> H 4.24475622 0.67203987 -3.35369970
|126> *
|127> 
|128>                          ****END OF INPUT****
================================================================================


                 $$$$$$$$$$$$$$$$$$$$$$$$$$$$$$$$$$$$$$$$$$$$$$ 
                 $ THERE ARE  2 JOBS TO BE PROCESSED THIS RUN $
                 $$$$$$$$$$$$$$$$$$$$$$$$$$$$$$$$$$$$$$$$$$$$$$ 




                 $$$$$$$$$$$$$$$$  JOB NUMBER  1 $$$$$$$$$$$$$$


                       ****************************
                       * Single Point Calculation *
                       ****************************

---------------------------------
CARTESIAN COORDINATES (ANGSTROEM)
---------------------------------
  C     -5.299466    2.965211   -1.514406
  C     -4.869465    1.833138   -0.826800
  C     -5.806199    0.838957   -0.487668
  C     -7.173324    1.054725   -0.820885
  C     -7.608815    2.192070   -1.518265
  C     -6.649483    3.139327   -1.866869
  C     -5.750563   -0.423304    0.232059
  C     -7.097120   -0.879459    0.333577
  N     -7.929179    0.005844   -0.327744
  C     -7.456978   -2.042733    1.030550
  C     -6.436860   -2.755945    1.656546
  C     -5.101179   -2.342788    1.557304
  C     -4.724230   -1.197361    0.832648
  H     -4.323599   -2.935295    2.030689
  H     -8.936461   -0.074998   -0.393259
  H     -6.675063   -3.654952    2.218031
  H     -3.824033    1.740669   -0.546815
  H     -8.657387    2.331929   -1.766868
  H     -6.949794    4.033687   -2.406077
  H     -4.579190    3.733883   -1.780055
  S      1.852765   -0.492324    0.342362
  C      2.639263   -0.027921   -1.174694
  N      1.785544    0.180615   -2.172678
  N      0.481642   -0.008023   -1.815951
  C      0.324422   -0.361255   -0.545688
  C     -0.958788   -0.617131    0.067170
  N     -1.115231   -0.962888    1.337644
  N     -2.424108   -1.153891    1.688644
  C     -3.282275   -0.929661    0.704446
  S     -2.484228   -0.485780   -0.820485
  S     12.146784    0.130791    0.734303
  C     10.371764    0.018970    0.683675
  C      9.719163   -0.333049    1.820237
  S     10.686605   -0.656976    3.277826
  C     12.335342   -0.334179    2.511454
  S      7.948260   -0.442365    1.761344
  C      7.828758    0.014408    0.032697
  S      9.399549    0.340658   -0.766889
  C      6.640735    0.105510   -0.618004
  S      6.503105    0.559767   -2.342106
  C      4.748121    0.455721   -2.417119
  C      4.077274    0.103630   -1.285144
  S      5.065727   -0.217219    0.167253
  H     12.963083   -1.229179    2.594582
  H     12.842762    0.473017    3.052707
  H     -8.492505   -2.365791    1.089921
  H      4.244756    0.672040   -3.353700

----------------------------
CARTESIAN COORDINATES (A.U.)
----------------------------
  NO LB      ZA    FRAG     MASS         X           Y           Z
   0 C     6.0000    0    12.011  -10.014539    5.603436   -2.861812
   1 C     6.0000    0    12.011   -9.201955    3.464128   -1.562426
   2 C     6.0000    0    12.011  -10.972126    1.585399   -0.921559
   3 C     6.0000    0    12.011  -13.555618    1.993142   -1.551247
   4 C     6.0000    0    12.011  -14.378577    4.142413   -2.869104
   5 C     6.0000    0    12.011  -12.565703    5.932468   -3.527872
   6 C     6.0000    0    12.011  -10.866989   -0.799928    0.438527
   7 C     6.0000    0    12.011  -13.411612   -1.661937    0.630369
   8 N     7.0000    0    14.007  -14.983977    0.011043   -0.619346
   9 C     6.0000    0    12.011  -14.091647   -3.860206    1.947458
  10 C     6.0000    0    12.011  -12.163903   -5.207981    3.130418
  11 C     6.0000    0    12.011   -9.639831   -4.427228    2.942878
  12 C     6.0000    0    12.011   -8.927501   -2.262685    1.573477
  13 H     1.0000    0     1.008   -8.170417   -5.546905    3.837446
  14 H     1.0000    0     1.008  -16.887465   -0.141726   -0.743152
  15 H     1.0000    0     1.008  -12.614041   -6.906858    4.191472
  16 H     1.0000    0     1.008   -7.226376    3.289389   -1.033331
  17 H     1.0000    0     1.008  -16.360090    4.406708   -3.338896
  18 H     1.0000    0     1.008  -13.133207    7.622564   -4.546826
  19 H     1.0000    0     1.008   -8.653415    7.056016   -3.363816
  20 S    16.0000    0    32.060    3.501219   -0.930358    0.646971
  21 C     6.0000    0    12.011    4.987485   -0.052763   -2.219850
  22 N     7.0000    0    14.007    3.374189    0.341312   -4.105766
  23 N     7.0000    0    14.007    0.910172   -0.015162   -3.431651
  24 C     6.0000    0    12.011    0.613068   -0.682673   -1.031201
  25 C     6.0000    0    12.011   -1.811847   -1.166208    0.126933
  26 N     7.0000    0    14.007   -2.107482   -1.819594    2.527781
  27 N     7.0000    0    14.007   -4.580900   -2.180538    3.191075
  28 C     6.0000    0    12.011   -6.202600   -1.756804    1.331210
  29 S    16.0000    0    32.060   -4.694510   -0.917991   -1.550493
  30 S    16.0000    0    32.060   22.954095    0.247160    1.387631
  31 C     6.0000    0    12.011   19.599793    0.035849    1.291958
  32 C     6.0000    0    12.011   18.366557   -0.629372    3.439750
  33 S    16.0000    0    32.060   20.194756   -1.241505    6.194193
  34 C     6.0000    0    12.011   23.310419   -0.631507    4.745961
  35 S    16.0000    0    32.060   15.020034   -0.835949    3.328457
  36 C     6.0000    0    12.011   14.794208    0.027227    0.061788
  37 S    16.0000    0    32.060   17.762573    0.643750   -1.449209
  38 C     6.0000    0    12.011   12.549171    0.199384   -1.167859
  39 S    16.0000    0    32.060   12.289087    1.057807   -4.425939
  40 C     6.0000    0    12.011    8.972648    0.861189   -4.567693
  41 C     6.0000    0    12.011    7.704932    0.195833   -2.428570
  42 S    16.0000    0    32.060    9.572836   -0.410485    0.316063
  43 H     1.0000    0     1.008   24.496676   -2.322811    4.903049
  44 H     1.0000    0     1.008   24.269303    0.893872    5.768780
  45 H     1.0000    0     1.008  -16.048509   -4.470697    2.059652
  46 H     1.0000    0     1.008    8.021427    1.269971   -6.337574

--------------------------------
INTERNAL COORDINATES (ANGSTROEM)
--------------------------------
 C      0   0   0     0.000000000000     0.00000000     0.00000000
 C      1   0   0     1.392584388099     0.00000000     0.00000000
 C      2   1   0     1.407436385278   119.18946321     0.00000000
 C      3   2   1     1.423594068028   118.40475953   357.74426353
 C      4   3   2     1.403405062518   122.48956764     2.58485097
 C      5   4   3     1.392529297800   117.50989744   358.97706224
 C      3   2   1     1.454098954861   134.99013533   181.86104734
 C      7   3   2     1.425341732170   106.07629287   174.30842810
 N      8   7   3     1.383267674240   109.23203423     2.45224501
 C      8   7   3     1.403024089921   122.89063451   183.43078778
 C     10   8   7     1.393263073103   117.37603487     0.84534049
 C     11  10   8     1.401639169522   120.99885709   358.21094238
 C     12  11  10     1.406847562749   122.12674769     0.20491006
 H     12  11  10     1.086181088819   119.37638250   181.84440410
 H      9   8   7     1.012642523887   125.32200866   181.17521481
 H     11  10   8     1.086379288252   119.68878296   179.16921357
 H      2   1   3     1.086217467441   119.58151609   181.07288597
 H      5   4   3     1.086676473630   121.15902718   179.61480177
 H      6   5   4     1.086651372051   119.58395031   180.09363254
 H      1   2   3     1.086381172973   119.41994435   180.13899808
 S     17   2   1     6.164652676351   162.61144797   226.49256809
 C     21  17   2     1.770793597654   100.97815906    90.50544620
 N     22  21  17     1.329772629978   113.51162460   337.59129934
 N     23  22  21     1.364916434126   113.29637931     0.00000000
 C     24  23  22     1.327802879149   113.57245255     0.00000000
 C     25  24  23     1.444885728029   123.92066707   179.98769372
 N     26  25  24     1.325943696956   123.87445156   180.37483407
 N     27  26  25     1.368518072717   113.26540507   180.09320416
 C     28  27  26     1.324905782596   113.91267179   358.61892537
 S     26  25  24     1.769788389780   122.65667419     0.00000000
 S     22  21  17     9.698577810376   105.72756977   157.58710226
 C     31  22  21     1.779259321593    10.07023991   359.96584371
 C     32  31  22     1.357048082642   118.17867744   179.98125270
 S     33  32  31     1.779167194862   118.15645198     0.00000000
 C     34  33  32     1.846580775312    96.52675854     0.00000000
 S     33  32  31     1.775251306302   117.89858373   180.00038767
 C     36  33  32     1.791966127575    94.75130762     0.00000000
 S     32  31  35     1.775618089835   123.92388991   180.00008872
 C     37  36  33     1.357610987345   122.53568686   179.99761981
 S     39  37  36     1.788244777123   123.12740944   180.00038256
 C     40  39  37     1.759665017838    95.90269822   179.99612332
 C     41  40  39     1.362119841485   118.10241579     0.00000000
 S     42  41  40     1.785900202961   116.72446198     0.00000000
 H     35  34  33     1.096354200850   109.69752264   238.85572588
 H     35  34  33     1.096354777277   109.69727578   121.14304582
 H     10   8   7     1.086373173954   121.21086288   180.04425107
 H     41  40  39     1.085059075620   119.18813412   180.00623738

---------------------------
INTERNAL COORDINATES (A.U.)
---------------------------
 C      0   0   0     0.000000000000     0.00000000     0.00000000
 C      1   0   0     2.631603111882     0.00000000     0.00000000
 C      2   1   0     2.659669319091   119.18946321     0.00000000
 C      3   2   1     2.690202914448   118.40475953   357.74426353
 C      4   3   2     2.652051223117   122.48956764     2.58485097
 C      5   4   3     2.631499006304   117.50989744   358.97706224
 C      3   2   1     2.747848796309   134.99013533   181.86104734
 C      7   3   2     2.693505521050   106.07629287   174.30842810
 N      8   7   3     2.613997074220   109.23203423     2.45224501
 C      8   7   3     2.651331289244   122.89063451   183.43078778
 C     10   8   7     2.632885640670   117.37603487     0.84534049
 C     11  10   8     2.648714168973   120.99885709   358.21094238
 C     12  11  10     2.658556605770   122.12674769     0.20491006
 H     12  11  10     2.052584789713   119.37638250   181.84440410
 H      9   8   7     1.913617041709   125.32200866   181.17521481
 H     11  10   8     2.052959332360   119.68878296   179.16921357
 H      2   1   3     2.052653535346   119.58151609   181.07288597
 H      5   4   3     2.053520931336   121.15902718   179.61480177
 H      6   5   4     2.053473496226   119.58395031   180.09363254
 H      1   2   3     2.052962893968   119.41994435   180.13899808
 S     17   2   1    11.649505269049   162.61144797   226.49256809
 C     21  17   2     3.346314939266   100.97815906    90.50544620
 N     22  21  17     2.512906091044   113.51162460   337.59129934
 N     23  22  21     2.579318256187   113.29637931     0.00000000
 C     24  23  22     2.509183801423   113.57245255     0.00000000
 C     25  24  23     2.730438320786   123.92066707   179.98769372
 N     26  25  24     2.505670456247   123.87445156   180.37483407
 N     27  26  25     2.586124366757   113.26540507   180.09320416
 C     28  27  26     2.503709082355   113.91267179   358.61892537
 S     26  25  24     3.344415371677   122.65667419     0.00000000
 S     22  21  17    18.327655950136   105.72756977   157.58710226
 C     31  22  21     3.362312839038    10.07023991   359.96584371
 C     32  31  22     2.564449226756   118.17867744   179.98125270
 S     33  32  31     3.362138744745   118.15645198     0.00000000
 C     34  33  32     3.489531949504    96.52675854     0.00000000
 S     33  32  31     3.354738787797   117.89858373   180.00038767
 C     36  33  32     3.386325222380    94.75130762     0.00000000
 S     32  31  35     3.355431908225   123.92388991   180.00008872
 C     37  36  33     2.565512962485   122.53568686   179.99761981
 S     39  37  36     3.379292889178   123.12740944   180.00038256
 C     40  39  37     3.325284971156    95.90269822   179.99612332
 C     41  40  39     2.574033461986   118.10241579     0.00000000
 S     42  41  40     3.374862286111   116.72446198     0.00000000
 H     35  34  33     2.071809185380   109.69752264   238.85572588
 H     35  34  33     2.071810274670   109.69727578   121.14304582
 H     10   8   7     2.052947778012   121.21086288   180.04425107
 H     41  40  39     2.050464492048   119.18813412   180.00623738

---------------------
BASIS SET INFORMATION
---------------------
There are 4 groups of distinct atoms

 Group   1 Type C   : 11s6p2d1f contracted to 5s3p2d1f pattern {62111/411/11/1}
 Group   2 Type N   : 11s6p2d1f contracted to 5s3p2d1f pattern {62111/411/11/1}
 Group   3 Type H   : 5s1p contracted to 3s1p pattern {311/1}
 Group   4 Type S   : 14s9p3d1f contracted to 5s5p2d1f pattern {73211/51111/21/1}

Atom   0C    basis set group =>   1
Atom   1C    basis set group =>   1
Atom   2C    basis set group =>   1
Atom   3C    basis set group =>   1
Atom   4C    basis set group =>   1
Atom   5C    basis set group =>   1
Atom   6C    basis set group =>   1
Atom   7C    basis set group =>   1
Atom   8N    basis set group =>   2
Atom   9C    basis set group =>   1
Atom  10C    basis set group =>   1
Atom  11C    basis set group =>   1
Atom  12C    basis set group =>   1
Atom  13H    basis set group =>   3
Atom  14H    basis set group =>   3
Atom  15H    basis set group =>   3
Atom  16H    basis set group =>   3
Atom  17H    basis set group =>   3
Atom  18H    basis set group =>   3
Atom  19H    basis set group =>   3
Atom  20S    basis set group =>   4
Atom  21C    basis set group =>   1
Atom  22N    basis set group =>   2
Atom  23N    basis set group =>   2
Atom  24C    basis set group =>   1
Atom  25C    basis set group =>   1
Atom  26N    basis set group =>   2
Atom  27N    basis set group =>   2
Atom  28C    basis set group =>   1
Atom  29S    basis set group =>   4
Atom  30S    basis set group =>   4
Atom  31C    basis set group =>   1
Atom  32C    basis set group =>   1
Atom  33S    basis set group =>   4
Atom  34C    basis set group =>   1
Atom  35S    basis set group =>   4
Atom  36C    basis set group =>   1
Atom  37S    basis set group =>   4
Atom  38C    basis set group =>   1
Atom  39S    basis set group =>   4
Atom  40C    basis set group =>   1
Atom  41C    basis set group =>   1
Atom  42S    basis set group =>   4
Atom  43H    basis set group =>   3
Atom  44H    basis set group =>   3
Atom  45H    basis set group =>   3
Atom  46H    basis set group =>   3
-------------------------------
AUXILIARY BASIS SET INFORMATION
-------------------------------
There are 4 groups of distinct atoms

 Group   1 Type C   : 12s5p4d2f1g contracted to 6s4p3d1f1g pattern {711111/2111/211/2/1}
 Group   2 Type N   : 12s5p4d2f1g contracted to 6s4p3d1f1g pattern {711111/2111/211/2/1}
 Group   3 Type H   : 5s2p1d contracted to 3s1p1d pattern {311/2/1}
 Group   4 Type S   : 14s5p5d2f1g contracted to 8s4p3d1f1g pattern {71111111/2111/311/2/1}

Atom   0C    basis set group =>   1
Atom   1C    basis set group =>   1
Atom   2C    basis set group =>   1
Atom   3C    basis set group =>   1
Atom   4C    basis set group =>   1
Atom   5C    basis set group =>   1
Atom   6C    basis set group =>   1
Atom   7C    basis set group =>   1
Atom   8N    basis set group =>   2
Atom   9C    basis set group =>   1
Atom  10C    basis set group =>   1
Atom  11C    basis set group =>   1
Atom  12C    basis set group =>   1
Atom  13H    basis set group =>   3
Atom  14H    basis set group =>   3
Atom  15H    basis set group =>   3
Atom  16H    basis set group =>   3
Atom  17H    basis set group =>   3
Atom  18H    basis set group =>   3
Atom  19H    basis set group =>   3
Atom  20S    basis set group =>   4
Atom  21C    basis set group =>   1
Atom  22N    basis set group =>   2
Atom  23N    basis set group =>   2
Atom  24C    basis set group =>   1
Atom  25C    basis set group =>   1
Atom  26N    basis set group =>   2
Atom  27N    basis set group =>   2
Atom  28C    basis set group =>   1
Atom  29S    basis set group =>   4
Atom  30S    basis set group =>   4
Atom  31C    basis set group =>   1
Atom  32C    basis set group =>   1
Atom  33S    basis set group =>   4
Atom  34C    basis set group =>   1
Atom  35S    basis set group =>   4
Atom  36C    basis set group =>   1
Atom  37S    basis set group =>   4
Atom  38C    basis set group =>   1
Atom  39S    basis set group =>   4
Atom  40C    basis set group =>   1
Atom  41C    basis set group =>   1
Atom  42S    basis set group =>   4
Atom  43H    basis set group =>   3
Atom  44H    basis set group =>   3
Atom  45H    basis set group =>   3
Atom  46H    basis set group =>   3
-------------------------
ECP PARAMETER INFORMATION
-------------------------



--------------------------------------------------------------------------
[[19716,1],0]: A high-performance Open MPI point-to-point messaging module
was unable to find any relevant network interfaces:

Module: OpenFabrics (openib)
  Host: cx1-108-10-4

Another transport will be used instead, although this may result in
lower performance.
--------------------------------------------------------------------------


           ************************************************************
           *        Program running with 24 parallel MPI-processes    *
           *              working on a common directory               *
           ************************************************************
------------------------------------------------------------------------------
                           ORCA GTO INTEGRAL CALCULATION
                           -- RI-GTO INTEGRALS CHOSEN --
------------------------------------------------------------------------------

                         BASIS SET STATISTICS AND STARTUP INFO

Gaussian basis set:
 # of primitive gaussian shells          ...  842
 # of primitive gaussian functions       ... 1880
 # of contracted shells                  ...  456
 # of contracted basis functions         ... 1230
 Highest angular momentum                ...    3
 Maximum contraction depth               ...    7
Auxiliary gaussian basis set:
 # of primitive gaussian shells          ...  976
 # of primitive gaussian functions       ... 2752
 # of contracted shells                  ...  611
 # of contracted aux-basis functions     ... 1901
 Highest angular momentum                ...    4
 Maximum contraction depth               ...    7
Ratio of auxiliary to basis functions    ...  1.55
Integral package used                  ... LIBINT
 One Electron integrals                  
   ECP integrals                         ... done
 Ordering auxiliary basis shells         ... done
 Integral threshhold             Thresh  ...  2.500e-11
 Primitive cut-off               TCut    ...  2.500e-12
 Pre-screening matrix                    ... done
 Shell pair data                         ... 
 Ordering of the shell pairs             ... done (   0.012 sec) 44251 of 104196 pairs
 Determination of significant pairs      ... done (   0.000 sec)
 Creation of shell pair data             ... done (   0.012 sec)
 Storage of shell pair data              ... done (   0.116 sec)
 Shell pair data done in (   0.141 sec)
 Computing two index integrals           ... done
 Cholesky decomposition of the V-matrix  ... done


Timings:
 Total evaluation time                   ...   6.617 sec (  0.110 min)
 One electron matrix time                ...   1.690 sec (  0.028 min) = 25.5%
 Schwartz matrix evaluation time         ...   2.780 sec (  0.046 min) = 42.0%
 Two index repulsion integral time       ...   1.295 sec (  0.022 min) = 19.6%
 Cholesky decomposition of V             ...   0.673 sec (  0.011 min) = 10.2%
 Three index repulsion integral time     ...   0.000 sec (  0.000 min) =  0.0%

--------------------------------------------------------------------------
[[19634,1],14]: A high-performance Open MPI point-to-point messaging module
was unable to find any relevant network interfaces:

Module: OpenFabrics (openib)
  Host: cx1-108-10-4

Another transport will be used instead, although this may result in
lower performance.
--------------------------------------------------------------------------


           ************************************************************
           *        Program running with 24 parallel MPI-processes    *
           *              working on a common directory               *
           ************************************************************
-------------------------------------------------------------------------------
                                 ORCA SCF
-------------------------------------------------------------------------------

------------
SCF SETTINGS
------------
Hamiltonian:
 Density Functional     Method          .... DFT(GTOs)
 Exchange Functional    Exchange        .... WB97X-D3
 Correlation Functional Correlation     .... WB97X-D3
 Gradients option       PostSCFGGA      .... off
 Hybrid DFT is turned on
   Fraction HF Exchange ScalHFX         ....  0.195728
   Scaling of DF-GGA-X  ScalDFX         ....  0.000000
   Scaling of DF-GGA-C  ScalDFC         ....  1.000000
   Scaling of DF-LDA-C  ScalLDAC        ....  1.000000
   Perturbative correction              ....  0.000000
 Long-range corrected/Screened/Range-Separated Hybrid DFT is turned on
   Amount of maximum screened exact exchange              ....  0.804272
   Range separation parameter mu (erf(mu*r12)/r12)        ....  0.250000
 RI-approximation to the Coulomb term is turned on
   Number of auxiliary basis functions  .... 1901
   RIJ-COSX (HFX calculated with COS-X)).... on


General Settings:
 Integral files         IntName         .... total
 Hartree-Fock type      HFTyp           .... RHF
 Total Charge           Charge          ....    0
 Multiplicity           Mult            ....    1
 Number of Electrons    NEL             ....  312
 Basis Dimension        Dim             .... 1230
 Nuclear Repulsion      ENuc            ....   4625.2952214068 Eh

Convergence Acceleration:
 DIIS                   CNVDIIS         .... on
   Start iteration      DIISMaxIt       ....    12
   Startup error        DIISStart       ....  0.200000
   # of expansion vecs  DIISMaxEq       ....     5
   Bias factor          DIISBfac        ....   1.050
   Max. coefficient     DIISMaxC        ....  10.000
 Newton-Raphson         CNVNR           .... off
 SOSCF                  CNVSOSCF        .... on
   Start iteration      SOSCFMaxIt      ....   150
   Startup grad/error   SOSCFStart      ....  0.003300
 Level Shifting         CNVShift        .... on
   Level shift para.    LevelShift      ....    0.2500
   Turn off err/grad.   ShiftErr        ....    0.0010
 Zerner damping         CNVZerner       .... off
 Static damping         CNVDamp         .... on
   Fraction old density DampFac         ....    0.7000
   Max. Damping (<1)    DampMax         ....    0.9800
   Min. Damping (>=0)   DampMin         ....    0.0000
   Turn off err/grad.   DampErr         ....    0.1000
 Fernandez-Rico         CNVRico         .... off

SCF Procedure:
 Maximum # iterations   MaxIter         ....   125
 SCF integral mode      SCFMode         .... Direct
   Integral package                     .... LIBINT
 Reset frequeny         DirectResetFreq ....    20
 Integral Threshold     Thresh          ....  2.500e-11 Eh
 Primitive CutOff       TCut            ....  2.500e-12 Eh

Convergence Tolerance:
 Convergence Check Mode ConvCheckMode   .... Total+1el-Energy
 Convergence forced     ConvForced      .... 1
 Energy Change          TolE            ....  1.000e-08 Eh
 1-El. energy change                    ....  1.000e-05 Eh
 Orbital Gradient       TolG            ....  1.000e-05
 Orbital Rotation angle TolX            ....  1.000e-05
 DIIS Error             TolErr          ....  5.000e-07


Diagonalization of the overlap matrix:
Smallest eigenvalue                        ... 6.344e-06
Time for diagonalization                   ...    0.523 sec
Threshold for overlap eigenvalues          ... 1.000e-08
Number of eigenvalues below threshold      ... 0
Time for construction of square roots      ...    0.554 sec
Total time needed                          ...    1.087 sec

-------------------
DFT GRID GENERATION
-------------------

General Integration Accuracy     IntAcc      ...  5.010
Radial Grid Type                 RadialGrid  ... Gauss-Chebyshev
Angular Grid (max. acc.)         AngularGrid ... Lebedev-434
Angular grid pruning method      GridPruning ... 3 (G Style)
Weight generation scheme         WeightScheme... Becke
Basis function cutoff            BFCut       ...    1.0000e-11
Integration weight cutoff        WCut        ...    1.0000e-14
Grids for H and He will be reduced by one unit

# of grid points (after initial pruning)     ... 466536 (   0.0 sec)
# of grid points (after weights+screening)   ... 415768 (   1.1 sec)
nearest neighbour list constructed           ...    0.0 sec
Grid point re-assignment to atoms done       ...    0.2 sec
Grid point division into batches done        ...    5.2 sec
Reduced shell lists constructed in    6.0 sec

Total number of grid points                  ...   415768
Total number of batches                      ...     6521
Average number of points per batch           ...       63
Average number of grid points per atom       ...     8846
Average number of shells per batch           ...   136.70 (29.98%)
Average number of basis functions per batch  ...   359.33 (29.21%)
Average number of large shells per batch     ...    93.93 (68.71%)
Average number of large basis fcns per batch ...   246.17 (68.51%)
Maximum spatial batch extension              ...   8.56, 10.81, 14.02 au
Average spatial batch extension              ...   0.05,  0.05,  0.06 au

Time for grid setup =    8.303 sec

------------------------------
INITIAL GUESS: MODEL POTENTIAL
------------------------------
Loading Hartree-Fock densities                     ... done
Calculating cut-offs                               ... done
Setting up the integral package                    ... done
Initializing the effective Hamiltonian             ... done
Starting the Coulomb interaction                   ... done (   0.7 sec)
Reading the grid                                   ... done
Mapping shells                                     ... done
Starting the XC term evaluation                    ... done (   1.9 sec)
  promolecular density results
     # of electrons  =    311.994654620
     EX              =   -352.747119514
     EC              =    -11.281107224
     EX+EC           =   -364.028226739
Transforming the Hamiltonian                       ... done (   0.3 sec)
Diagonalizing the Hamiltonian                      ... done (   0.5 sec)
Back transforming the eigenvectors                 ... done (   0.2 sec)
Now organizing SCF variables                       ... done
                      ------------------
                      INITIAL GUESS DONE (  12.2 sec)
                      ------------------
--------------------
COSX GRID GENERATION
--------------------

General Integration Accuracy     IntAcc      ...  3.340
Radial Grid Type                 RadialGrid  ... Gauss-Chebyshev
Angular Grid (max. acc.)         AngularGrid ... Lebedev-50
Angular grid pruning method      GridPruning ... 3 (G Style)
Weight generation scheme         WeightScheme... Becke
Basis function cutoff            BFCut       ...    1.0000e-11
Integration weight cutoff        WCut        ...    1.0000e-14
Grids for H and He will be reduced by one unit

# of grid points (after initial pruning)     ...  25338 (   0.0 sec)
# of grid points (after weights+screening)   ...  23460 (   0.1 sec)
nearest neighbour list constructed           ...    0.0 sec
Grid point re-assignment to atoms done       ...    0.0 sec
Grid point division into batches done        ...    0.0 sec
Reduced shell lists constructed in    0.1 sec

Total number of grid points                  ...    23460
Total number of batches                      ...      387
Average number of points per batch           ...       60
Average number of grid points per atom       ...      499
Average number of shells per batch           ...   149.89 (32.87%)
Average number of basis functions per batch  ...   397.67 (32.33%)
Average number of large shells per batch     ...   105.44 (70.35%)
Average number of large basis fcns per batch ...   281.89 (70.89%)
Maximum spatial batch extension              ...   5.10,  9.79, 16.28 au
Average spatial batch extension              ...   0.12,  0.17,  0.27 au

Overlap Fitting                  UseSFitting ... on
Constructing numerical overlap ... done (      0.1 sec)
Inverting numerical overlap    ... done (      0.2 sec)
Obtaining analytic overlap     ... done (      0.0 sec)
Final contraction and storage  ... done (      0.7 sec)


General Integration Accuracy     IntAcc      ...  3.670
Radial Grid Type                 RadialGrid  ... Gauss-Chebyshev
Angular Grid (max. acc.)         AngularGrid ... Lebedev-50
Angular grid pruning method      GridPruning ... 3 (G Style)
Weight generation scheme         WeightScheme... Becke
Basis function cutoff            BFCut       ...    1.0000e-11
Integration weight cutoff        WCut        ...    1.0000e-14
Grids for H and He will be reduced by one unit

# of grid points (after initial pruning)     ...  31524 (   0.0 sec)
# of grid points (after weights+screening)   ...  29138 (   0.1 sec)
nearest neighbour list constructed           ...    0.0 sec
Grid point re-assignment to atoms done       ...    0.0 sec
Grid point division into batches done        ...    0.0 sec
Reduced shell lists constructed in    0.1 sec

Total number of grid points                  ...    29138
Total number of batches                      ...      483
Average number of points per batch           ...       60
Average number of grid points per atom       ...      620
Average number of shells per batch           ...   147.73 (32.40%)
Average number of basis functions per batch  ...   391.45 (31.83%)
Average number of large shells per batch     ...   103.05 (69.75%)
Average number of large basis fcns per batch ...   274.41 (70.10%)
Maximum spatial batch extension              ...   7.88,  9.21, 14.65 au
Average spatial batch extension              ...   0.10,  0.13,  0.17 au

Overlap Fitting                  UseSFitting ... on
Constructing numerical overlap ... done (      0.1 sec)
Inverting numerical overlap    ... done (      0.2 sec)
Obtaining analytic overlap     ... done (      0.0 sec)
Final contraction and storage  ... done (      0.7 sec)


General Integration Accuracy     IntAcc      ...  4.010
Radial Grid Type                 RadialGrid  ... Gauss-Chebyshev
Angular Grid (max. acc.)         AngularGrid ... Lebedev-110
Angular grid pruning method      GridPruning ... 3 (G Style)
Weight generation scheme         WeightScheme... Becke
Basis function cutoff            BFCut       ...    1.0000e-11
Integration weight cutoff        WCut        ...    1.0000e-14
Grids for H and He will be reduced by one unit

# of grid points (after initial pruning)     ...  61508 (   0.0 sec)
# of grid points (after weights+screening)   ...  56175 (   0.2 sec)
nearest neighbour list constructed           ...    0.0 sec
Grid point re-assignment to atoms done       ...    0.0 sec
Grid point division into batches done        ...    0.1 sec
Reduced shell lists constructed in    0.2 sec

Total number of grid points                  ...    56175
Total number of batches                      ...      899
Average number of points per batch           ...       62
Average number of grid points per atom       ...     1195
Average number of shells per batch           ...   147.90 (32.43%)
Average number of basis functions per batch  ...   393.64 (32.00%)
Average number of large shells per batch     ...   103.77 (70.16%)
Average number of large basis fcns per batch ...   276.18 (70.16%)
Maximum spatial batch extension              ...   4.48,  9.94, 14.84 au
Average spatial batch extension              ...   0.09,  0.10,  0.13 au

Overlap Fitting                  UseSFitting ... on
Constructing numerical overlap ... done (      0.2 sec)
Inverting numerical overlap    ... done (      0.2 sec)
Obtaining analytic overlap     ... done (      0.0 sec)
Final contraction and storage  ... done (      0.7 sec)

Time for X-Grid setup             =    4.394 sec
--------------
SCF ITERATIONS
--------------
ITER       Energy         Delta-E        Max-DP      RMS-DP      [F,P]     Damp
               ***  Starting incremental Fock matrix formation  ***
  0  -4341.7532557671   0.000000000000 0.04351280  0.00050303  0.1547021 0.7000
  1  -4342.0204228830  -0.267167115924 0.04465435  0.00041422  0.0975756 0.7000
                               ***Turning on DIIS***
  2  -4342.1476234236  -0.127200540674 0.08618619  0.00089226  0.0557380 0.0000
  3  -4342.3549578494  -0.207334425719 0.03527727  0.00027999  0.0397945 0.0000
  4  -4342.3943271974  -0.039369348046 0.01054329  0.00010496  0.0081694 0.0000
  5  -4342.3964114029  -0.002084205528 0.00530430  0.00005001  0.0048260 0.0000
  6  -4342.3971558788  -0.000744475842 0.00314191  0.00003103  0.0018153 0.0000
                      *** Initiating the SOSCF procedure ***
                           *** Shutting down DIIS ***
                      *** Re-Reading the Fockian *** 
                      *** Removing any level shift *** 
ITER      Energy       Delta-E        Grad      Rot      Max-DP    RMS-DP
  7  -4342.39747087  -0.0003149941  0.002937  0.002937  0.001693  0.000018
               *** Restarting incremental Fock matrix formation ***
  8  -4342.39761287  -0.0001419958  0.001715  0.007873  0.005036  0.000054
  9  -4342.39768402  -0.0000711520  0.000689  0.007827  0.002743  0.000029
 10  -4342.39770309  -0.0000190701  0.000337  0.000564  0.001610  0.000017
 11  -4342.39770904  -0.0000059538  0.000102  0.000839  0.000309  0.000003
 12  -4342.39770988  -0.0000008384  0.000046  0.000088  0.000152  0.000002
 13  -4342.39771010  -0.0000002138  0.000029  0.000163  0.000156  0.000001
 14  -4342.39771016  -0.0000000652  0.000008  0.000034  0.000101  0.000001
 15  -4342.39771010   0.0000000631  0.000004  0.000022  0.000100  0.000001
                  ***Gradient check signals convergence***
              ***Rediagonalizing the Fockian in SOSCF/NRSCF***

               *****************************************************
               *                     SUCCESS                       *
               *           SCF CONVERGED AFTER  16 CYCLES          *
               *****************************************************

Old exchange energy                            =   -103.317872337 Eh
New exchange energy                            =   -103.320889495 Eh
Exchange energy change after final integration =     -0.003017157 Eh
Total energy after final integration           =  -4342.400727281 Eh
Final COS-X integration done in                =    52.334 sec

----------------
TOTAL SCF ENERGY
----------------

Total Energy       :        -4342.40072728 Eh         -118162.73107 eV

Components:
Nuclear Repulsion  :         4625.29522141 Eh          125860.68161 eV
Electronic Energy  :        -8967.69594869 Eh         -244023.41267 eV
One Electron Energy:       -15181.26837684 Eh         -413103.31430 eV
Two Electron Energy:         6213.57242815 Eh          169079.90163 eV

Virial components:
Potential Energy   :        -8672.62600304 Eh         -235994.15125 eV
Kinetic Energy     :         4330.22527576 Eh          117831.42019 eV
Virial Ratio       :            2.00281174


DFT components:
N(Alpha)           :      156.000004319790 electrons
N(Beta)            :      156.000004319790 electrons
N(Total)           :      312.000008639581 electrons
E(XC)              :     -265.396774500603 Eh       

---------------
SCF CONVERGENCE
---------------

  Last Energy change         ...   -2.4650e-08  Tolerance :   1.0000e-08
  Last MAX-Density change    ...    5.5393e-14  Tolerance :   1.0000e-07
  Last RMS-Density change    ...    1.7188e-16  Tolerance :   5.0000e-09
  Last Orbital Gradient      ...    1.3891e-06  Tolerance :   1.0000e-05
  Last Orbital Rotation      ...    6.4569e-06  Tolerance :   1.0000e-05

             **** THE GBW FILE WAS UPDATED (total.gbw) ****
             **** DENSITY FILE WAS UPDATED (total.scfp.tmp) ****
             **** ENERGY FILE WAS UPDATED (total.en.tmp) ****
----------------
ORBITAL ENERGIES
----------------

  NO   OCC          E(Eh)            E(eV) 
   0   2.0000     -89.017283     -2422.2834 
   1   2.0000     -89.009692     -2422.0768 
   2   2.0000     -89.002577     -2421.8832 
   3   2.0000     -89.000077     -2421.8152 
   4   2.0000     -88.999886     -2421.8100 
   5   2.0000     -88.998949     -2421.7845 
   6   2.0000     -88.987513     -2421.4733 
   7   2.0000     -88.987382     -2421.4698 
   8   2.0000     -14.480334      -394.0299 
   9   2.0000     -14.476188      -393.9171 
  10   2.0000     -14.474353      -393.8672 
  11   2.0000     -14.474337      -393.8667 
  12   2.0000     -14.466144      -393.6438 
  13   2.0000     -10.387456      -282.6571 
  14   2.0000     -10.384987      -282.5899 
  15   2.0000     -10.380845      -282.4772 
  16   2.0000     -10.375271      -282.3255 
  17   2.0000     -10.369992      -282.1818 
  18   2.0000     -10.369140      -282.1586 
  19   2.0000     -10.368326      -282.1365 
  20   2.0000     -10.363476      -282.0045 
  21   2.0000     -10.362742      -281.9845 
  22   2.0000     -10.359185      -281.8877 
  23   2.0000     -10.351844      -281.6880 
  24   2.0000     -10.337901      -281.3086 
  25   2.0000     -10.333966      -281.2015 
  26   2.0000     -10.320777      -280.8426 
  27   2.0000     -10.307888      -280.4919 
  28   2.0000     -10.300666      -280.2954 
  29   2.0000     -10.298796      -280.2445 
  30   2.0000     -10.296056      -280.1699 
  31   2.0000     -10.293337      -280.0959 
  32   2.0000     -10.292471      -280.0724 
  33   2.0000     -10.291992      -280.0594 
  34   2.0000     -10.291773      -280.0534 
  35   2.0000     -10.282181      -279.7924 
  36   2.0000      -8.113382      -220.7764 
  37   2.0000      -8.105961      -220.5744 
  38   2.0000      -8.098723      -220.3775 
  39   2.0000      -8.095952      -220.3021 
  40   2.0000      -8.095752      -220.2966 
  41   2.0000      -8.095444      -220.2882 
  42   2.0000      -8.083917      -219.9746 
  43   2.0000      -8.083786      -219.9710 
  44   2.0000      -6.066493      -165.0777 
  45   2.0000      -6.062513      -164.9694 
  46   2.0000      -6.060494      -164.9144 
  47   2.0000      -6.059049      -164.8751 
  48   2.0000      -6.055063      -164.7666 
  49   2.0000      -6.053068      -164.7124 
  50   2.0000      -6.052863      -164.7068 
  51   2.0000      -6.050282      -164.6365 
  52   2.0000      -6.050086      -164.6312 
  53   2.0000      -6.049661      -164.6197 
  54   2.0000      -6.048414      -164.5857 
  55   2.0000      -6.046112      -164.5231 
  56   2.0000      -6.045899      -164.5173 
  57   2.0000      -6.045407      -164.5039 
  58   2.0000      -6.044224      -164.4717 
  59   2.0000      -6.040784      -164.3781 
  60   2.0000      -6.040593      -164.3729 
  61   2.0000      -6.040513      -164.3707 
  62   2.0000      -6.038527      -164.3167 
  63   2.0000      -6.038399      -164.3132 
  64   2.0000      -6.034258      -164.2005 
  65   2.0000      -6.034123      -164.1968 
  66   2.0000      -6.028149      -164.0343 
  67   2.0000      -6.028015      -164.0306 
  68   2.0000      -1.162218       -31.6256 
  69   2.0000      -1.151597       -31.3365 
  70   2.0000      -1.113343       -30.2956 
  71   2.0000      -1.035019       -28.1643 
  72   2.0000      -1.019612       -27.7451 
  73   2.0000      -0.996249       -27.1093 
  74   2.0000      -0.983239       -26.7553 
  75   2.0000      -0.973783       -26.4980 
  76   2.0000      -0.970420       -26.4065 
  77   2.0000      -0.952245       -25.9119 
  78   2.0000      -0.938921       -25.5493 
  79   2.0000      -0.920767       -25.0553 
  80   2.0000      -0.911100       -24.7923 
  81   2.0000      -0.908017       -24.7084 
  82   2.0000      -0.903749       -24.5923 
  83   2.0000      -0.890757       -24.2387 
  84   2.0000      -0.879065       -23.9206 
  85   2.0000      -0.853755       -23.2319 
  86   2.0000      -0.849622       -23.1194 
  87   2.0000      -0.848590       -23.0913 
  88   2.0000      -0.846995       -23.0479 
  89   2.0000      -0.792566       -21.5668 
  90   2.0000      -0.780339       -21.2341 
  91   2.0000      -0.769923       -20.9507 
  92   2.0000      -0.752291       -20.4709 
  93   2.0000      -0.731324       -19.9003 
  94   2.0000      -0.727786       -19.8041 
  95   2.0000      -0.724514       -19.7150 
  96   2.0000      -0.720435       -19.6040 
  97   2.0000      -0.693171       -18.8621 
  98   2.0000      -0.677463       -18.4347 
  99   2.0000      -0.667855       -18.1733 
 100   2.0000      -0.652147       -17.7458 
 101   2.0000      -0.647878       -17.6297 
 102   2.0000      -0.638739       -17.3810 
 103   2.0000      -0.631009       -17.1706 
 104   2.0000      -0.620611       -16.8877 
 105   2.0000      -0.615448       -16.7472 
 106   2.0000      -0.580535       -15.7972 
 107   2.0000      -0.577942       -15.7266 
 108   2.0000      -0.576586       -15.6897 
 109   2.0000      -0.570919       -15.5355 
 110   2.0000      -0.563886       -15.3441 
 111   2.0000      -0.562676       -15.3112 
 112   2.0000      -0.556219       -15.1355 
 113   2.0000      -0.551936       -15.0189 
 114   2.0000      -0.549551       -14.9540 
 115   2.0000      -0.547202       -14.8901 
 116   2.0000      -0.545942       -14.8558 
 117   2.0000      -0.541240       -14.7279 
 118   2.0000      -0.538766       -14.6606 
 119   2.0000      -0.531043       -14.4504 
 120   2.0000      -0.529489       -14.4081 
 121   2.0000      -0.525683       -14.3045 
 122   2.0000      -0.522105       -14.2072 
 123   2.0000      -0.503156       -13.6916 
 124   2.0000      -0.502427       -13.6717 
 125   2.0000      -0.498505       -13.5650 
 126   2.0000      -0.488118       -13.2824 
 127   2.0000      -0.475255       -12.9324 
 128   2.0000      -0.474363       -12.9081 
 129   2.0000      -0.472182       -12.8487 
 130   2.0000      -0.468895       -12.7593 
 131   2.0000      -0.458462       -12.4754 
 132   2.0000      -0.457533       -12.4501 
 133   2.0000      -0.453116       -12.3299 
 134   2.0000      -0.447234       -12.1699 
 135   2.0000      -0.443241       -12.0612 
 136   2.0000      -0.432996       -11.7824 
 137   2.0000      -0.427557       -11.6344 
 138   2.0000      -0.421971       -11.4824 
 139   2.0000      -0.419594       -11.4177 
 140   2.0000      -0.413785       -11.2597 
 141   2.0000      -0.407537       -11.0896 
 142   2.0000      -0.406291       -11.0557 
 143   2.0000      -0.394783       -10.7426 
 144   2.0000      -0.390688       -10.6312 
 145   2.0000      -0.385749       -10.4968 
 146   2.0000      -0.381587       -10.3835 
 147   2.0000      -0.374942       -10.2027 
 148   2.0000      -0.371854       -10.1186 
 149   2.0000      -0.360990        -9.8230 
 150   2.0000      -0.352391        -9.5890 
 151   2.0000      -0.334443        -9.1007 
 152   2.0000      -0.307171        -8.3586 
 153   2.0000      -0.300127        -8.1669 
 154   2.0000      -0.295064        -8.0291 
 155   2.0000      -0.256266        -6.9734 
 156   0.0000      -0.038493        -1.0475 
 157   0.0000      -0.002989        -0.0813 
 158   0.0000       0.009423         0.2564 
 159   0.0000       0.023288         0.6337 
 160   0.0000       0.038654         1.0518 
 161   0.0000       0.044365         1.2072 
 162   0.0000       0.048176         1.3109 
 163   0.0000       0.049975         1.3599 
 164   0.0000       0.052665         1.4331 
 165   0.0000       0.054387         1.4799 
 166   0.0000       0.062964         1.7133 
 167   0.0000       0.074243         2.0202 
 168   0.0000       0.077375         2.1055 
 169   0.0000       0.089045         2.4230 
 170   0.0000       0.094731         2.5778 
 171   0.0000       0.099017         2.6944 
 172   0.0000       0.105327         2.8661 
 173   0.0000       0.110272         3.0007 
 174   0.0000       0.112130         3.0512 
 175   0.0000       0.117462         3.1963 
 176   0.0000       0.123139         3.3508 
 177   0.0000       0.126073         3.4306 
 178   0.0000       0.128301         3.4913 
 179   0.0000       0.133282         3.6268 
 180   0.0000       0.135534         3.6881 
 181   0.0000       0.140149         3.8136 
 182   0.0000       0.144662         3.9364 
 183   0.0000       0.150056         4.0832 
 184   0.0000       0.150276         4.0892 
 185   0.0000       0.157307         4.2805 
 186   0.0000       0.161506         4.3948 
 187   0.0000       0.164594         4.4788 
 188   0.0000       0.165154         4.4941 
 189   0.0000       0.168193         4.5768 
 190   0.0000       0.170774         4.6470 
 191   0.0000       0.176549         4.8042 
 192   0.0000       0.185535         5.0487 
 193   0.0000       0.187721         5.1081 
 194   0.0000       0.192956         5.2506 
 195   0.0000       0.202314         5.5052 
 196   0.0000       0.205225         5.5845 
 197   0.0000       0.208648         5.6776 
 198   0.0000       0.218271         5.9394 
 199   0.0000       0.222151         6.0450 
 200   0.0000       0.226983         6.1765 
 201   0.0000       0.231306         6.2942 
 202   0.0000       0.235184         6.3997 
 203   0.0000       0.237029         6.4499 
 204   0.0000       0.246606         6.7105 
 205   0.0000       0.246968         6.7203 
 206   0.0000       0.253917         6.9094 
 207   0.0000       0.256708         6.9854 
 208   0.0000       0.260714         7.0944 
 209   0.0000       0.264262         7.1909 
 210   0.0000       0.265227         7.2172 
 211   0.0000       0.267043         7.2666 
 212   0.0000       0.270970         7.3735 
 213   0.0000       0.273911         7.4535 
 214   0.0000       0.275604         7.4996 
 215   0.0000       0.277399         7.5484 
 216   0.0000       0.281722         7.6660 
 217   0.0000       0.285604         7.7717 
 218   0.0000       0.288191         7.8421 
 219   0.0000       0.289839         7.8869 
 220   0.0000       0.291224         7.9246 
 221   0.0000       0.292786         7.9671 
 222   0.0000       0.293788         7.9944 
 223   0.0000       0.296145         8.0585 
 224   0.0000       0.297252         8.0886 
 225   0.0000       0.298497         8.1225 
 226   0.0000       0.300680         8.1819 
 227   0.0000       0.304705         8.2915 
 228   0.0000       0.305776         8.3206 
 229   0.0000       0.309590         8.4244 
 230   0.0000       0.311759         8.4834 
 231   0.0000       0.314398         8.5552 
 232   0.0000       0.316104         8.6016 
 233   0.0000       0.324025         8.8172 
 234   0.0000       0.325182         8.8487 
 235   0.0000       0.326978         8.8975 
 236   0.0000       0.330165         8.9843 
 237   0.0000       0.332410         9.0453 
 238   0.0000       0.335615         9.1325 
 239   0.0000       0.337421         9.1817 
 240   0.0000       0.338196         9.2028 
 241   0.0000       0.339859         9.2480 
 242   0.0000       0.344106         9.3636 
 243   0.0000       0.347310         9.4508 
 244   0.0000       0.347619         9.4592 
 245   0.0000       0.348724         9.4893 
 246   0.0000       0.356787         9.7087 
 247   0.0000       0.359633         9.7861 
 248   0.0000       0.363041         9.8789 
 249   0.0000       0.364764         9.9257 
 250   0.0000       0.366194         9.9646 
 251   0.0000       0.367207         9.9922 
 252   0.0000       0.373952        10.1758 
 253   0.0000       0.376826        10.2539 
 254   0.0000       0.379677        10.3315 
 255   0.0000       0.384571        10.4647 
 256   0.0000       0.387462        10.5434 
 257   0.0000       0.388375        10.5682 
 258   0.0000       0.392069        10.6687 
 259   0.0000       0.394107        10.7242 
 260   0.0000       0.396646        10.7933 
 261   0.0000       0.397807        10.8249 
 262   0.0000       0.399415        10.8686 
 263   0.0000       0.402328        10.9479 
 264   0.0000       0.405142        11.0245 
 265   0.0000       0.407237        11.0815 
 266   0.0000       0.408378        11.1125 
 267   0.0000       0.413078        11.2404 
 268   0.0000       0.416361        11.3298 
 269   0.0000       0.417654        11.3649 
 270   0.0000       0.428291        11.6544 
 271   0.0000       0.431492        11.7415 
 272   0.0000       0.433033        11.7834 
 273   0.0000       0.435817        11.8592 
 274   0.0000       0.437154        11.8956 
 275   0.0000       0.438183        11.9236 
 276   0.0000       0.441959        12.0263 
 277   0.0000       0.444437        12.0937 
 278   0.0000       0.445565        12.1245 
 279   0.0000       0.447304        12.1718 
 280   0.0000       0.449347        12.2273 
 281   0.0000       0.458618        12.4796 
 282   0.0000       0.460893        12.5415 
 283   0.0000       0.463929        12.6241 
 284   0.0000       0.465228        12.6595 
 285   0.0000       0.467521        12.7219 
 286   0.0000       0.469545        12.7770 
 287   0.0000       0.471057        12.8181 
 288   0.0000       0.472561        12.8590 
 289   0.0000       0.478399        13.0179 
 290   0.0000       0.481493        13.1021 
 291   0.0000       0.481777        13.1098 
 292   0.0000       0.484172        13.1750 
 293   0.0000       0.485538        13.2122 
 294   0.0000       0.486732        13.2446 
 295   0.0000       0.489950        13.3322 
 296   0.0000       0.494021        13.4430 
 297   0.0000       0.499389        13.5891 
 298   0.0000       0.503147        13.6913 
 299   0.0000       0.503580        13.7031 
 300   0.0000       0.506102        13.7717 
 301   0.0000       0.511362        13.9149 
 302   0.0000       0.513286        13.9672 
 303   0.0000       0.514429        13.9983 
 304   0.0000       0.516699        14.0601 
 305   0.0000       0.519126        14.1261 
 306   0.0000       0.519341        14.1320 
 307   0.0000       0.523173        14.2363 
 308   0.0000       0.525335        14.2951 
 309   0.0000       0.528842        14.3905 
 310   0.0000       0.530136        14.4257 
 311   0.0000       0.534456        14.5433 
 312   0.0000       0.538680        14.6582 
 313   0.0000       0.540850        14.7173 
 314   0.0000       0.545892        14.8545 
 315   0.0000       0.546786        14.8788 
 316   0.0000       0.548652        14.9296 
 317   0.0000       0.553906        15.0725 
 318   0.0000       0.555000        15.1023 
 319   0.0000       0.558354        15.1936 
 320   0.0000       0.560423        15.2499 
 321   0.0000       0.564665        15.3653 
 322   0.0000       0.572092        15.5674 
 323   0.0000       0.573354        15.6017 
 324   0.0000       0.574210        15.6250 
 325   0.0000       0.576149        15.6778 
 326   0.0000       0.582861        15.8605 
 327   0.0000       0.585775        15.9397 
 328   0.0000       0.587780        15.9943 
 329   0.0000       0.590136        16.0584 
 330   0.0000       0.591788        16.1034 
 331   0.0000       0.601410        16.3652 
 332   0.0000       0.604868        16.4593 
 333   0.0000       0.609282        16.5794 
 334   0.0000       0.615089        16.7374 
 335   0.0000       0.617723        16.8091 
 336   0.0000       0.623921        16.9777 
 337   0.0000       0.627694        17.0804 
 338   0.0000       0.629412        17.1272 
 339   0.0000       0.632759        17.2182 
 340   0.0000       0.635063        17.2809 
 341   0.0000       0.638130        17.3644 
 342   0.0000       0.641055        17.4440 
 343   0.0000       0.646663        17.5966 
 344   0.0000       0.651421        17.7261 
 345   0.0000       0.657158        17.8822 
 346   0.0000       0.658770        17.9261 
 347   0.0000       0.665029        18.0964 
 348   0.0000       0.670010        18.2319 
 349   0.0000       0.672316        18.2947 
 350   0.0000       0.675966        18.3940 
 351   0.0000       0.678252        18.4562 
 352   0.0000       0.681949        18.5568 
 353   0.0000       0.685618        18.6566 
 354   0.0000       0.689360        18.7584 
 355   0.0000       0.691107        18.8060 
 356   0.0000       0.693564        18.8728 
 357   0.0000       0.696045        18.9403 
 358   0.0000       0.698086        18.9959 
 359   0.0000       0.700748        19.0683 
 360   0.0000       0.701206        19.0808 
 361   0.0000       0.705251        19.1908 
 362   0.0000       0.707567        19.2539 
 363   0.0000       0.714086        19.4313 
 364   0.0000       0.717230        19.5168 
 365   0.0000       0.725202        19.7338 
 366   0.0000       0.727769        19.8036 
 367   0.0000       0.729987        19.8640 
 368   0.0000       0.733938        19.9715 
 369   0.0000       0.738201        20.0875 
 370   0.0000       0.740707        20.1557 
 371   0.0000       0.744114        20.2484 
 372   0.0000       0.745538        20.2871 
 373   0.0000       0.751747        20.4561 
 374   0.0000       0.753454        20.5025 
 375   0.0000       0.755175        20.5494 
 376   0.0000       0.760186        20.6857 
 377   0.0000       0.765761        20.8374 
 378   0.0000       0.769765        20.9464 
 379   0.0000       0.771177        20.9848 
 380   0.0000       0.775558        21.1040 
 381   0.0000       0.782397        21.2901 
 382   0.0000       0.784148        21.3378 
 383   0.0000       0.791355        21.5339 
 384   0.0000       0.793740        21.5988 
 385   0.0000       0.796930        21.6856 
 386   0.0000       0.801846        21.8193 
 387   0.0000       0.805904        21.9298 
 388   0.0000       0.812306        22.1040 
 389   0.0000       0.816183        22.2095 
 390   0.0000       0.817587        22.2477 
 391   0.0000       0.821373        22.3507 
 392   0.0000       0.822288        22.3756 
 393   0.0000       0.824293        22.4302 
 394   0.0000       0.831606        22.6291 
 395   0.0000       0.834953        22.7202 
 396   0.0000       0.836665        22.7668 
 397   0.0000       0.839935        22.8558 
 398   0.0000       0.841611        22.9014 
 399   0.0000       0.845298        23.0017 
 400   0.0000       0.849335        23.1116 
 401   0.0000       0.851475        23.1698 
 402   0.0000       0.860661        23.4198 
 403   0.0000       0.864531        23.5251 
 404   0.0000       0.865130        23.5414 
 405   0.0000       0.870087        23.6763 
 406   0.0000       0.876290        23.8451 
 407   0.0000       0.879291        23.9267 
 408   0.0000       0.882389        24.0110 
 409   0.0000       0.887372        24.1466 
 410   0.0000       0.889096        24.1935 
 411   0.0000       0.894182        24.3319 
 412   0.0000       0.899342        24.4723 
 413   0.0000       0.901981        24.5442 
 414   0.0000       0.906873        24.6773 
 415   0.0000       0.912018        24.8173 
 416   0.0000       0.912841        24.8397 
 417   0.0000       0.919132        25.0108 
 418   0.0000       0.925249        25.1773 
 419   0.0000       0.929048        25.2807 
 420   0.0000       0.929901        25.3039 
 421   0.0000       0.935138        25.4464 
 422   0.0000       0.941109        25.6089 
 423   0.0000       0.944988        25.7144 
 424   0.0000       0.948965        25.8226 
 425   0.0000       0.953636        25.9498 
 426   0.0000       0.958640        26.0859 
 427   0.0000       0.960067        26.1247 
 428   0.0000       0.964894        26.2561 
 429   0.0000       0.969034        26.3688 
 430   0.0000       0.971731        26.4422 
 431   0.0000       0.971989        26.4492 
 432   0.0000       0.975082        26.5333 
 433   0.0000       0.979437        26.6518 
 434   0.0000       0.985357        26.8129 
 435   0.0000       0.987542        26.8724 
 436   0.0000       0.996783        27.1239 
 437   0.0000       0.998720        27.1766 
 438   0.0000       1.009208        27.4619 
 439   0.0000       1.012374        27.5481 
 440   0.0000       1.019183        27.7334 
 441   0.0000       1.024691        27.8832 
 442   0.0000       1.029402        28.0114 
 443   0.0000       1.035586        28.1797 
 444   0.0000       1.045482        28.4490 
 445   0.0000       1.051989        28.6261 
 446   0.0000       1.052417        28.6377 
 447   0.0000       1.060018        28.8445 
 448   0.0000       1.060990        28.8710 
 449   0.0000       1.064175        28.9577 
 450   0.0000       1.066645        29.0249 
 451   0.0000       1.074064        29.2268 
 452   0.0000       1.078497        29.3474 
 453   0.0000       1.081829        29.4381 
 454   0.0000       1.085593        29.5405 
 455   0.0000       1.089329        29.6422 
 456   0.0000       1.096608        29.8402 
 457   0.0000       1.105160        30.0729 
 458   0.0000       1.114827        30.3360 
 459   0.0000       1.116932        30.3933 
 460   0.0000       1.131250        30.7829 
 461   0.0000       1.139758        31.0144 
 462   0.0000       1.140649        31.0386 
 463   0.0000       1.148192        31.2439 
 464   0.0000       1.154322        31.4107 
 465   0.0000       1.160581        31.5810 
 466   0.0000       1.161366        31.6024 
 467   0.0000       1.167332        31.7647 
 468   0.0000       1.174623        31.9631 
 469   0.0000       1.177828        32.0503 
 470   0.0000       1.187236        32.3063 
 471   0.0000       1.189500        32.3680 
 472   0.0000       1.202292        32.7160 
 473   0.0000       1.208098        32.8740 
 474   0.0000       1.211390        32.9636 
 475   0.0000       1.213229        33.0136 
 476   0.0000       1.219613        33.1874 
 477   0.0000       1.220387        33.2084 
 478   0.0000       1.228372        33.4257 
 479   0.0000       1.231557        33.5124 
 480   0.0000       1.231954        33.5232 
 481   0.0000       1.237366        33.6704 
 482   0.0000       1.245752        33.8986 
 483   0.0000       1.252787        34.0901 
 484   0.0000       1.258585        34.2479 
 485   0.0000       1.267633        34.4940 
 486   0.0000       1.272665        34.6310 
 487   0.0000       1.281808        34.8798 
 488   0.0000       1.284942        34.9651 
 489   0.0000       1.294051        35.2129 
 490   0.0000       1.301090        35.4045 
 491   0.0000       1.309051        35.6211 
 492   0.0000       1.312501        35.7150 
 493   0.0000       1.316590        35.8262 
 494   0.0000       1.320316        35.9276 
 495   0.0000       1.330849        36.2143 
 496   0.0000       1.335948        36.3530 
 497   0.0000       1.339786        36.4574 
 498   0.0000       1.340899        36.4877 
 499   0.0000       1.346524        36.6408 
 500   0.0000       1.350890        36.7596 
 501   0.0000       1.352389        36.8004 
 502   0.0000       1.355024        36.8721 
 503   0.0000       1.367114        37.2011 
 504   0.0000       1.370882        37.3036 
 505   0.0000       1.376283        37.4506 
 506   0.0000       1.383344        37.6427 
 507   0.0000       1.388706        37.7886 
 508   0.0000       1.404507        38.2186 
 509   0.0000       1.414854        38.5001 
 510   0.0000       1.419088        38.6153 
 511   0.0000       1.424492        38.7624 
 512   0.0000       1.431261        38.9466 
 513   0.0000       1.434377        39.0314 
 514   0.0000       1.442078        39.2409 
 515   0.0000       1.445824        39.3429 
 516   0.0000       1.457899        39.6714 
 517   0.0000       1.462683        39.8016 
 518   0.0000       1.471578        40.0437 
 519   0.0000       1.473442        40.0944 
 520   0.0000       1.478329        40.2274 
 521   0.0000       1.490482        40.5581 
 522   0.0000       1.492847        40.6224 
 523   0.0000       1.494099        40.6565 
 524   0.0000       1.497216        40.7413 
 525   0.0000       1.500406        40.8281 
 526   0.0000       1.502530        40.8859 
 527   0.0000       1.504175        40.9307 
 528   0.0000       1.512242        41.1502 
 529   0.0000       1.512912        41.1684 
 530   0.0000       1.516592        41.2686 
 531   0.0000       1.519927        41.3593 
 532   0.0000       1.523500        41.4565 
 533   0.0000       1.530970        41.6598 
 534   0.0000       1.534900        41.7668 
 535   0.0000       1.540401        41.9164 
 536   0.0000       1.543360        41.9970 
 537   0.0000       1.552004        42.2322 
 538   0.0000       1.555873        42.3375 
 539   0.0000       1.558222        42.4014 
 540   0.0000       1.561309        42.4854 
 541   0.0000       1.564439        42.5706 
 542   0.0000       1.566445        42.6251 
 543   0.0000       1.575933        42.8833 
 544   0.0000       1.576687        42.9038 
 545   0.0000       1.580364        43.0039 
 546   0.0000       1.583767        43.0965 
 547   0.0000       1.584014        43.1032 
 548   0.0000       1.589533        43.2534 
 549   0.0000       1.595697        43.4211 
 550   0.0000       1.596282        43.4370 
 551   0.0000       1.603424        43.6314 
 552   0.0000       1.604041        43.6482 
 553   0.0000       1.606781        43.7227 
 554   0.0000       1.609223        43.7892 
 555   0.0000       1.610309        43.8187 
 556   0.0000       1.613946        43.9177 
 557   0.0000       1.617678        44.0193 
 558   0.0000       1.618483        44.0412 
 559   0.0000       1.619228        44.0614 
 560   0.0000       1.624118        44.1945 
 561   0.0000       1.625729        44.2383 
 562   0.0000       1.633059        44.4378 
 563   0.0000       1.635797        44.5123 
 564   0.0000       1.637141        44.5489 
 565   0.0000       1.638440        44.5842 
 566   0.0000       1.639338        44.6086 
 567   0.0000       1.643199        44.7137 
 568   0.0000       1.643540        44.7230 
 569   0.0000       1.651595        44.9422 
 570   0.0000       1.652691        44.9720 
 571   0.0000       1.655545        45.0497 
 572   0.0000       1.656841        45.0849 
 573   0.0000       1.663583        45.2684 
 574   0.0000       1.669663        45.4339 
 575   0.0000       1.671079        45.4724 
 576   0.0000       1.674149        45.5559 
 577   0.0000       1.676781        45.6275 
 578   0.0000       1.679706        45.7071 
 579   0.0000       1.684326        45.8328 
 580   0.0000       1.685993        45.8782 
 581   0.0000       1.688717        45.9523 
 582   0.0000       1.690990        46.0142 
 583   0.0000       1.692219        46.0476 
 584   0.0000       1.697869        46.2014 
 585   0.0000       1.699877        46.2560 
 586   0.0000       1.700301        46.2675 
 587   0.0000       1.703482        46.3541 
 588   0.0000       1.704037        46.3692 
 589   0.0000       1.711809        46.5807 
 590   0.0000       1.713522        46.6273 
 591   0.0000       1.717550        46.7369 
 592   0.0000       1.719079        46.7785 
 593   0.0000       1.730172        47.0804 
 594   0.0000       1.733420        47.1688 
 595   0.0000       1.734122        47.1878 
 596   0.0000       1.737637        47.2835 
 597   0.0000       1.739566        47.3360 
 598   0.0000       1.740798        47.3695 
 599   0.0000       1.746025        47.5117 
 600   0.0000       1.751154        47.6513 
 601   0.0000       1.757388        47.8210 
 602   0.0000       1.759538        47.8795 
 603   0.0000       1.763630        47.9908 
 604   0.0000       1.766082        48.0575 
 605   0.0000       1.772395        48.2293 
 606   0.0000       1.774672        48.2913 
 607   0.0000       1.778125        48.3853 
 608   0.0000       1.782891        48.5149 
 609   0.0000       1.787583        48.6426 
 610   0.0000       1.789120        48.6844 
 611   0.0000       1.793799        48.8118 
 612   0.0000       1.796753        48.8921 
 613   0.0000       1.799132        48.9569 
 614   0.0000       1.804104        49.0922 
 615   0.0000       1.806619        49.1606 
 616   0.0000       1.808335        49.2073 
 617   0.0000       1.813247        49.3410 
 618   0.0000       1.814198        49.3668 
 619   0.0000       1.815764        49.4095 
 620   0.0000       1.823870        49.6300 
 621   0.0000       1.829254        49.7765 
 622   0.0000       1.831756        49.8446 
 623   0.0000       1.836860        49.9835 
 624   0.0000       1.839060        50.0434 
 625   0.0000       1.847285        50.2672 
 626   0.0000       1.849360        50.3236 
 627   0.0000       1.858466        50.5714 
 628   0.0000       1.861450        50.6526 
 629   0.0000       1.863091        50.6973 
 630   0.0000       1.870795        50.9069 
 631   0.0000       1.873086        50.9693 
 632   0.0000       1.877101        51.0785 
 633   0.0000       1.880832        51.1800 
 634   0.0000       1.883712        51.2584 
 635   0.0000       1.885311        51.3019 
 636   0.0000       1.885830        51.3160 
 637   0.0000       1.891595        51.4729 
 638   0.0000       1.894606        51.5549 
 639   0.0000       1.903019        51.7838 
 640   0.0000       1.907121        51.8954 
 641   0.0000       1.907497        51.9056 
 642   0.0000       1.910092        51.9763 
 643   0.0000       1.913099        52.0581 
 644   0.0000       1.917973        52.1907 
 645   0.0000       1.920206        52.2515 
 646   0.0000       1.920686        52.2645 
 647   0.0000       1.926185        52.4142 
 648   0.0000       1.926712        52.4285 
 649   0.0000       1.927908        52.4610 
 650   0.0000       1.932526        52.5867 
 651   0.0000       1.945431        52.9379 
 652   0.0000       1.946560        52.9686 
 653   0.0000       1.950971        53.0886 
 654   0.0000       1.955920        53.2233 
 655   0.0000       1.957374        53.2628 
 656   0.0000       1.963378        53.4262 
 657   0.0000       1.969686        53.5979 
 658   0.0000       1.973407        53.6991 
 659   0.0000       1.976507        53.7835 
 660   0.0000       1.977778        53.8181 
 661   0.0000       1.990611        54.1673 
 662   0.0000       1.993975        54.2588 
 663   0.0000       1.994729        54.2793 
 664   0.0000       2.000524        54.4370 
 665   0.0000       2.003479        54.5174 
 666   0.0000       2.003682        54.5229 
 667   0.0000       2.009173        54.6724 
 668   0.0000       2.009833        54.6903 
 669   0.0000       2.018298        54.9207 
 670   0.0000       2.021909        55.0189 
 671   0.0000       2.024547        55.0907 
 672   0.0000       2.027723        55.1771 
 673   0.0000       2.034552        55.3630 
 674   0.0000       2.045134        55.6509 
 675   0.0000       2.053257        55.8720 
 676   0.0000       2.054212        55.8980 
 677   0.0000       2.058408        56.0121 
 678   0.0000       2.062913        56.1347 
 679   0.0000       2.064245        56.1710 
 680   0.0000       2.073853        56.4324 
 681   0.0000       2.083808        56.7033 
 682   0.0000       2.084031        56.7094 
 683   0.0000       2.087937        56.8157 
 684   0.0000       2.100489        57.1572 
 685   0.0000       2.104385        57.2632 
 686   0.0000       2.110317        57.4247 
 687   0.0000       2.111346        57.4527 
 688   0.0000       2.117361        57.6163 
 689   0.0000       2.120845        57.7111 
 690   0.0000       2.121639        57.7327 
 691   0.0000       2.132127        58.0181 
 692   0.0000       2.134739        58.0892 
 693   0.0000       2.148793        58.4716 
 694   0.0000       2.155604        58.6570 
 695   0.0000       2.158615        58.7389 
 696   0.0000       2.165859        58.9360 
 697   0.0000       2.168914        59.0191 
[...]
 256   9.127     135.8   0.007402   0.006302  11.531755   9.929967     0.05 (  84-> 107)    0.03 (  77->  87)    0.03 (  78->  88)
 257   9.144     135.6   0.025117   0.022814  40.698170  38.511829     0.06 (  78->  88)    0.04 (  45->  85)    0.03 (  46->  85)
 258   9.153     135.5   0.023102   0.020803  -50.004228  -47.600545     0.09 (  45->  85)    0.06 (  46->  85)    0.04 (  65->  85)
 259   9.160     135.3   0.018745   0.018027  36.997662  36.260513     0.04 (  81->  96)    0.03 (  81-> 112)    0.03 (  45->  85)
 260   9.163     135.3   0.011672   0.010434  -18.488677  -21.169278     0.04 (  84-> 129)    0.04 (  80->  94)    0.03 (  81-> 122)
 261   9.175     135.1   0.002189   0.001869  -9.083696  -8.055337     0.22 (  84-> 114)    0.13 (  59->  89)    0.11 (  82-> 114)
 262   9.179     135.1   0.005459   0.004917  20.568172  19.254079     0.06 (  84-> 114)    0.03 (  83->  96)    0.03 (  84-> 107)
 263   9.194     134.8   0.018253   0.014415   0.429104   0.483745     0.02 (  82->  96)    0.02 (  78->  88)    0.02 (  84-> 114)
 264   9.206     134.7   0.010876   0.009035  -13.143304  -10.599089     0.06 (  84-> 129)    0.02 (  78->  88)    0.02 (  78-> 113)
 265   9.214     134.6   0.021481   0.017976  -29.540536  -26.369395     0.04 (  71->  90)    0.04 (  66->  87)    0.04 (  71->  87)
 266   9.216     134.5   0.021779   0.017321  -15.992965  -13.990456     0.06 (  78-> 104)    0.05 (  78->  90)    0.04 (  69->  99)
 267   9.228     134.4   0.023752   0.018973  -27.992984  -25.925694     0.04 (  73->  98)    0.03 (  59->  89)    0.02 (  84-> 114)
 268   9.230     134.3   0.037378   0.033445   9.867616   8.070285     0.12 (  59->  89)    0.06 (  65->  94)    0.06 (  75->  92)
 269   9.231     134.3   0.035304   0.028658   1.348347   1.208542     0.33 (  75->  92)    0.08 (  77->  92)    0.06 (  59->  89)
 270   9.248     134.1   0.003669   0.003324  14.553582  15.778648     0.04 (  62->  85)    0.03 (  57->  91)    0.02 (  61->  85)
 271   9.257     133.9   0.005604   0.004456   9.217240   7.581629     0.07 (  58->  91)    0.05 (  62->  85)    0.03 (  51->  85)
 272   9.262     133.9   0.035899   0.029198  15.290721  15.692764     0.03 (  78-> 105)    0.03 (  83-> 124)    0.03 (  73-> 101)
 273   9.277     133.6   0.019888   0.015503  -7.112748  -2.632347     0.06 (  68->  96)    0.04 (  73-> 101)    0.03 (  78-> 114)
 274   9.283     133.6   0.029628   0.026610  -45.125030  -44.104164     0.06 (  78-> 114)    0.03 (  68->  96)    0.02 (  53->  87)
 275   9.286     133.5   0.013695   0.011891  -40.738137  -38.448912     0.13 (  62->  95)    0.06 (  62->  97)    0.05 (  62->  98)
 276   9.292     133.4   0.021134   0.017779  -49.700741  -44.870350     0.09 (  56->  91)    0.06 (  58->  91)    0.03 (  56->  88)
 277   9.298     133.3   0.032321   0.027259  49.102851  42.866207     0.34 (  78-> 114)    0.06 (  69-> 114)    0.03 (  55->  87)
 278   9.303     133.3   0.017234   0.016525   1.516599   1.829565     0.13 (  78-> 114)    0.04 (  68->  96)    0.03 (  60->  90)
 279   9.312     133.1   0.150424   0.135061  70.031221  65.722301     0.06 (  78-> 114)    0.03 (  74-> 106)    0.02 (  68->  96)
 280   9.324     133.0   0.138567   0.122325  -28.047607  -26.199179     0.08 (  55->  87)    0.07 (  68->  96)    0.02 (  63->  91)
 281   9.329     132.9   0.030555   0.026407  -31.038507  -27.620932     0.12 (  81->  96)    0.02 (  78-> 105)    0.02 (  83-> 100)
 282   9.336     132.8   0.006403   0.005747   5.372777   5.428107     0.33 (  81->  96)    0.05 (  80->  94)    0.03 (  81->  97)
 283   9.340     132.8   0.018434   0.015161  -13.268538  -11.590372     0.03 (  81->  96)    0.03 (  78-> 105)    0.02 (  53->  85)
 284   9.355     132.5   0.001582   0.001455   3.920434   3.814721     0.08 (  83->  99)    0.05 (  81->  96)    0.02 (  53->  87)
 285   9.363     132.4   0.010962   0.009018  13.387843  11.623482     0.07 (  81->  96)    0.05 (  55->  87)    0.02 (  74->  93)
 286   9.373     132.3   0.010553   0.009303   0.721929   1.602884     0.03 (  53->  85)    0.02 (  77->  87)    0.02 (  53->  86)
 287   9.376     132.2   0.015353   0.013168  12.147181  10.479497     0.12 (  60->  90)    0.08 (  65->  96)    0.03 (  68->  99)
 288   9.385     132.1   0.004436   0.004006  -15.346566  -14.729533     0.07 (  77->  87)    0.06 (  77->  90)    0.06 (  60->  90)
 289   9.400     131.9   0.047498   0.042795  36.901301  32.720998     0.10 (  55->  87)    0.06 (  65->  96)    0.05 (  74->  93)
 290   9.412     131.7   0.011122   0.010199  -11.573448  -9.582642     0.05 (  83->  99)    0.04 (  81-> 126)    0.03 (  70->  95)
 291   9.420     131.6   0.024551   0.023073  -40.412518  -40.160165     0.08 (  81-> 126)    0.02 (  81-> 124)    0.02 (  73->  87)
 292   9.426     131.5   0.023859   0.020464  -36.104253  -31.943341     0.06 (  68-> 103)    0.04 (  81-> 126)    0.03 (  65-> 103)
 293   9.430     131.5   0.008387   0.008000  20.994849  21.015094     0.07 (  81-> 126)    0.03 (  81->  96)    0.02 (  80-> 108)
 294   9.435     131.4   0.050208   0.045757  25.980048  24.765198     0.05 (  68-> 103)    0.03 (  65-> 103)    0.02 (  83-> 100)
 295   9.443     131.3   0.003557   0.003223   8.235295   7.884248     0.02 (  73->  87)    0.02 (  72-> 107)    0.02 (  80-> 108)
 296   9.453     131.2   0.015350   0.011827  -9.491951  -8.330217     0.14 (  68-> 103)    0.11 (  55->  87)    0.08 (  65-> 103)
 297   9.459     131.1   0.006430   0.004858  -14.408648  -12.122227     0.09 (  81-> 126)    0.04 (  83->  99)    0.03 (  81-> 124)
 298   9.465     131.0   0.012912   0.009579   9.711590   8.420628     0.13 (  75->  91)    0.07 (  75->  94)    0.07 (  75->  90)
 299   9.488     130.7   0.021479   0.019053  33.210074  30.118485     0.04 (  77->  98)    0.03 (  82->  98)    0.03 (  72->  87)
 300   9.490     130.7   0.003087   0.002629   0.698196   0.357472     0.04 (  82->  98)    0.04 (  84-> 108)    0.03 (  83-> 127)
 301   9.501     130.5   0.004724   0.003966  -3.199031  -2.341620     0.07 (  82->  98)    0.06 (  84-> 108)    0.04 (  84-> 107)
 302   9.511     130.4   0.010834   0.009535  -25.432471  -24.284414     0.03 (  73->  87)    0.03 (  84-> 129)    0.02 (  56->  85)
 303   9.514     130.3   0.015469   0.014452   7.107041   6.191713     0.03 (  84-> 107)    0.02 (  76->  91)    0.02 (  84-> 108)
 304   9.520     130.2   0.004200   0.003635  -9.083372  -8.374369     0.09 (  79->  89)    0.05 (  74->  89)    0.04 (  80->  89)
 305   9.529     130.1   0.002051   0.001774   4.874501   4.553797     0.08 (  79->  89)    0.06 (  74->  89)    0.03 (  80->  89)
 306   9.541     130.0   0.004962   0.004017  -2.292090  -1.922851     0.18 (  60->  85)    0.10 (  65->  85)    0.04 (  55->  85)
 307   9.544     129.9   0.008820   0.007670  22.436140  20.781431     0.07 (  75->  91)    0.04 (  60->  85)    0.04 (  56->  85)
 308   9.545     129.9   0.004361   0.003420   1.965296   1.842557     0.12 (  75->  91)    0.04 (  81-> 124)    0.03 (  75->  94)
 309   9.551     129.8   0.006120   0.005084  24.208808  23.253588     0.02 (  79->  89)    0.01 (  58->  85)    0.01 (  78-> 113)
 310   9.561     129.7   0.004200   0.003716  11.035672  10.438710     0.07 (  79->  89)    0.03 (  80->  89)    0.03 (  75->  94)
 311   9.562     129.7   0.000370   0.000336   2.090689   1.613229     0.11 (  79->  89)    0.05 (  80->  89)    0.04 (  61->  89)
 312   9.572     129.5   0.009264   0.007546  -2.434040  -1.970841     0.03 (  75->  96)    0.03 (  58->  85)    0.02 (  56->  91)
 313   9.584     129.4   0.008167   0.006327  -6.730573  -5.942374     0.05 (  81-> 124)    0.05 (  81-> 125)    0.02 (  79-> 108)
 314   9.594     129.2   0.014536   0.013292  13.352725  11.769573     0.12 (  75->  96)    0.07 (  75-> 105)    0.03 (  75->  97)
 315   9.595     129.2   0.032854   0.026039  -16.312770  -13.330756     0.06 (  75->  94)    0.05 (  66->  95)    0.04 (  54->  87)
 316   9.602     129.1   0.030547   0.024717  -13.000803  -11.625712     0.13 (  84-> 108)    0.03 (  84-> 107)    0.03 (  84-> 109)
 317   9.617     128.9   0.007064   0.005423   2.321685   2.338549     0.09 (  81->  99)    0.04 (  74->  89)    0.03 (  84-> 108)
 318   9.620     128.9   0.008865   0.007211  21.679565  18.582504     0.04 (  81->  99)    0.03 (  84-> 108)    0.02 (  81-> 124)
 319   9.629     128.8   0.028004   0.024637  -40.720977  -38.151182     0.11 (  81->  99)    0.04 (  81-> 100)    0.02 (  81-> 104)
 320   9.637     128.7   0.006596   0.005123  27.277086  23.632529     0.10 (  59->  90)    0.10 (  59->  94)    0.04 (  66->  88)
 321   9.642     128.6   0.019266   0.017482  -16.845924  -16.295680     0.10 (  59->  94)    0.09 (  73->  87)    0.06 (  59->  90)
 322   9.644     128.6   0.016515   0.012937  -46.546803  -41.930691     0.24 (  59->  90)    0.23 (  59->  94)    0.03 (  66->  88)
 323   9.650     128.5   0.000980   0.000879  -7.700362  -7.544521     0.05 (  80->  96)    0.03 (  76->  96)    0.02 (  76-> 107)
 324   9.655     128.4   0.001970   0.001300  -9.913924  -8.066050     0.02 (  72-> 108)    0.02 (  73-> 107)    0.02 (  80-> 112)
 325   9.658     128.4   0.015591   0.013596  -5.028578  -4.798723     0.03 (  70->  94)    0.02 (  80-> 105)    0.02 (  83-> 102)
 326   9.674     128.2   0.001386   0.000954  -9.135235  -6.615337     0.37 (  69->  86)    0.07 (  70->  86)    0.06 (  69->  85)
 327   9.676     128.1   0.137746   0.118745  91.586547  82.960739     0.11 (  54->  87)    0.04 (  60->  94)    0.03 (  69->  86)
 328   9.685     128.0   0.001844   0.001602   6.257408   6.289046     0.02 (  82->  97)    0.02 (  79-> 102)    0.02 (  79->  94)
 329   9.689     128.0   0.069134   0.061910   0.969202   1.115911     0.04 (  73->  87)    0.03 (  70->  92)    0.02 (  71->  97)
 330   9.691     127.9   0.006833   0.005533  -30.271011  -26.597783     0.06 (  69->  86)    0.05 (  54->  87)    0.03 (  70->  92)
 331   9.696     127.9   0.019039   0.017027  -27.808219  -26.957533     0.04 (  81->  99)    0.02 (  80->  93)    0.02 (  67->  95)
 332   9.709     127.7   0.000606   0.000330   5.958258   4.422144     0.07 (  80->  93)    0.06 (  79->  93)    0.03 (  78-> 115)
 333   9.713     127.7   0.026552   0.023480  -16.385900  -15.106360     0.13 (  79->  93)    0.11 (  80->  93)    0.03 (  61->  93)
 334   9.724     127.5   0.019460   0.017443  33.234581  31.510786     0.04 (  78-> 115)    0.03 (  73->  87)    0.03 (  69->  94)
 335   9.737     127.3   0.005661   0.005717  -3.499833  -2.930758     0.08 (  65->  96)    0.06 (  60->  90)    0.05 (  54->  87)
 336   9.738     127.3   0.002873   0.001996   4.756387   4.529914     0.03 (  54->  87)    0.03 (  65->  96)    0.03 (  60->  90)
 337   9.748     127.2   0.007323   0.005808  -0.497851   0.428938     0.03 (  71-> 102)    0.03 (  51->  86)    0.03 (  71->  91)
 338   9.760     127.0   0.004417   0.003989  -18.843955  -18.255750     0.03 (  56->  85)    0.02 (  79->  92)    0.02 (  57->  85)
 339   9.769     126.9   0.009009   0.007858  -10.870405  -9.168074     0.10 (  83-> 127)    0.03 (  82-> 127)    0.02 (  57->  85)
 340   9.771     126.9   0.017015   0.014858  -34.108480  -29.630730     0.04 (  79->  92)    0.03 (  54->  87)    0.02 (  63->  91)
 341   9.782     126.7   0.004562   0.003483   0.152869   0.334689     0.06 (  79->  92)    0.03 (  61->  92)    0.02 (  54->  87)
 342   9.786     126.7   0.007839   0.006019  -21.074351  -18.559857     0.18 (  79->  92)    0.06 (  61->  92)    0.05 (  59->  85)
 343   9.793     126.6   0.005248   0.004412  20.214927  18.328616     0.08 (  68->  92)    0.07 (  55->  92)    0.07 (  66->  92)
 344   9.794     126.6   0.042344   0.034861  66.801535  58.812503     0.02 (  84-> 135)    0.02 (  56->  85)    0.02 (  70->  92)
 345   9.803     126.5   0.007363   0.006277  -4.596463  -4.052243     0.06 (  80->  96)    0.06 (  79->  94)    0.04 (  80->  94)
 346   9.819     126.3   0.018819   0.014436  -1.415688  -1.784557     0.07 (  59->  92)    0.06 (  59->  85)    0.06 (  83-> 106)
 347   9.829     126.1   0.004366   0.003892  -37.176905  -35.536721     0.08 (  59->  92)    0.06 (  59->  85)    0.03 (  83-> 126)
 348   9.842     126.0   0.019545   0.017620  46.202997  42.455772     0.05 (  71-> 108)    0.05 (  83-> 106)    0.05 (  71-> 107)
 349   9.847     125.9   0.005679   0.005120  -0.948669  -0.924777     0.17 (  84-> 111)    0.04 (  83-> 106)    0.03 (  84-> 112)
 350   9.851     125.9   0.004878   0.004424  -17.559715  -16.805639     0.04 (  84-> 111)    0.03 (  84-> 138)    0.03 (  79->  94)
 351   9.858     125.8   0.007585   0.006199  -7.812073  -6.171231     0.06 (  82-> 106)    0.04 (  74-> 106)    0.04 (  83-> 106)
 352   9.862     125.7   0.019815   0.016694  40.884018  36.630622     0.13 (  84-> 111)    0.05 (  59->  92)    0.04 (  84-> 112)
 353   9.870     125.6   0.007844   0.006446  -12.250177  -10.692489     0.04 (  83-> 106)    0.04 (  71-> 108)    0.03 (  82-> 100)
 354   9.873     125.6   0.019809   0.015813  -17.297858  -14.030212     0.09 (  59->  92)    0.05 (  71-> 106)    0.03 (  70-> 106)
 355   9.885     125.4   0.015720   0.010571   6.511517   5.224624     0.05 (  84-> 135)    0.03 (  78-> 109)    0.03 (  81-> 127)
 356   9.893     125.3   0.008049   0.006793   6.380784   4.405148     0.06 (  51->  86)    0.05 (  70-> 106)    0.04 (  57->  85)
 357   9.898     125.3   0.002091   0.002375   2.312310   2.480172     0.08 (  58->  85)    0.04 (  82-> 106)    0.03 (  51->  86)
 358   9.905     125.2   0.003258   0.002635   8.275290   6.763133     0.50 (  52->  89)    0.05 (  75->  89)    0.03 (  40->  89)
 359   9.917     125.0   0.002543   0.002161  -6.982775  -8.980550     0.06 (  72->  98)    0.05 (  78-> 109)    0.03 (  78-> 110)
 360   9.920     125.0   0.012135   0.009470   3.578260   3.515552     0.14 (  52->  89)    0.06 (  60->  94)    0.04 (  75->  89)
 361   9.922     125.0   0.004212   0.003875   3.630079   4.130580     0.04 (  72->  98)    0.03 (  58->  85)    0.02 (  51->  86)
 362   9.930     124.9   0.007183   0.006135  -11.722348  -11.452961     0.04 (  78-> 109)    0.03 (  78-> 110)    0.03 (  58->  85)
 363   9.935     124.8   0.001434   0.001340   3.815773   3.490731     0.04 (  83-> 106)    0.04 (  77-> 100)    0.02 (  77->  99)
 364   9.941     124.7   0.001605   0.001507  -6.130815  -5.853474     0.03 (  79->  90)    0.03 (  80->  94)    0.03 (  79->  94)
 365   9.953     124.6   0.010823   0.008895  26.141134  22.993619     0.05 (  78-> 109)    0.05 (  77->  89)    0.04 (  75->  89)
 366   9.956     124.5   0.001377   0.001145   0.846314   0.752963     0.65 (  77->  92)    0.11 (  75->  92)    0.05 (  77->  91)
 367   9.958     124.5   0.017810   0.014016  36.602015  31.903367     0.06 (  83-> 127)    0.05 (  82-> 101)    0.05 (  83-> 101)
 368   9.963     124.4   0.024454   0.020669  10.292680   8.971614     0.19 (  77->  89)    0.16 (  75->  89)    0.04 (  60->  94)
 369   9.971     124.4   0.003025   0.002358  13.365091  11.045439     0.14 (  82-> 101)    0.09 (  83-> 101)    0.03 (  83-> 104)
 370   9.975     124.3   0.003960   0.003677  -3.063145  -2.041467     0.13 (  68->  86)    0.05 (  55->  93)    0.04 (  60->  85)
 371   9.980     124.2   0.007338   0.006017   0.991892   1.226253     0.08 (  68->  86)    0.03 (  81-> 127)    0.02 (  48->  87)
 372   9.983     124.2   0.001543   0.001310  -7.877632  -6.784635     0.04 (  68->  86)    0.03 (  84-> 111)    0.02 (  82-> 101)
 373   9.987     124.1   0.011393   0.009702   3.042107   3.034536     0.08 (  75->  96)    0.07 (  52->  87)    0.07 (  75->  94)
 374   9.997     124.0   0.003710   0.003257  11.739581  12.374970     0.03 (  48->  87)    0.03 (  78-> 118)    0.03 (  82-> 129)

sTD-DFT done

Total run time:       90.158 sec

           *** ORCA-CIS/TD-DFT FINISHED WITHOUT ERROR ***


-------------------------------------------------------------------------------
                          DFT DISPERSION CORRECTION                            
                                                                               
                              DFTD3 V3.1  Rev 1                                
                              USING zero damping                               
-------------------------------------------------------------------------------
The omegaB97X-D3 functional is recognized. Fit by Chai et al.
Active option DFTDOPT                   ...         3   

molecular C6(AA) [au] = 59389.110302 


            DFT-D V3
 parameters
 s6 scaling factor         :     1.0000 
 rs6 scaling factor        :     1.2810 
 s8 scaling factor         :     1.0000 
 rs8 scaling factor        :     1.0940 
 Damping factor alpha6     :    14.0000 
 Damping factor alpha8     :    16.0000 
 ad hoc parameters k1-k3   :    16.0000     1.3333    -4.0000 

 Edisp/kcal,au: -13.719596213641  -0.021863565918 
 E6   /kcal   :  -6.215770706 
 E8   /kcal   :  -7.503825508 
 % E8         :  54.694215418 

-------------------------   ----------------
Dispersion correction           -0.021863566
-------------------------   ----------------


-------------------------   --------------------
FINAL SINGLE POINT ENERGY     -4342.422590853801
-------------------------   --------------------


                            ***************************************
                            *     ORCA property calculations      *
                            ***************************************

                                    ---------------------
                                    Active property flags
                                    ---------------------
   (+) Dipole Moment
   (+) Quadrupole Moment


------------------------------------------------------------------------------
                       ORCA ELECTRIC PROPERTIES CALCULATION
------------------------------------------------------------------------------

Dipole Moment Calculation                       ... on
Quadrupole Moment Calculation                   ... on
Polarizability Calculation                      ... off
GBWName                                         ... total_job2.gbw
Electron density file                           ... total_job2.scfp.tmp

-------------
DIPOLE MOMENT
-------------
                                X             Y             Z
Electronic contribution:     42.46239      -3.54475      -0.06365
Nuclear contribution   :    -43.17969       3.55772      -0.02044
                        -----------------------------------------
Total Dipole Moment    :     -0.71730       0.01297      -0.08409
                        -----------------------------------------
Magnitude (a.u.)       :      0.72233
Magnitude (Debye)      :      1.83601


------------------------
QUADRUPOLE MOMENT (A.U.)
------------------------

                XX           YY           ZZ           XY           XZ           YZ
  NUC     49274.85403   1457.51747   2500.10984   -276.71329   3018.22146  -1147.28291
  EL     -49381.01182  -1649.86999  -2698.51272    277.84283  -3002.94159   1143.02355
  TOT      -106.15779   -192.35252   -198.40288      1.12954     15.27987     -4.25936

--------------------------------------------------------------------------
[[20900,1],6]: A high-performance Open MPI point-to-point messaging module
was unable to find any relevant network interfaces:

Module: OpenFabrics (openib)
  Host: cx1-108-10-4

Another transport will be used instead, although this may result in
lower performance.
--------------------------------------------------------------------------

Timings for individual modules:

Sum of individual times         ...      273.181 sec (=   4.553 min)
GTO integral calculation        ...        7.170 sec (=   0.119 min)   2.6 %
SCF iterations                  ...      170.669 sec (=   2.844 min)  62.5 %
CIS module                      ...       95.343 sec (=   1.589 min)  34.9 %



                             ****ORCA TERMINATED NORMALLY****
TOTAL RUN TIME: 0 days 0 hours 15 minutes 42 seconds 924 msec
