
                                 *****************
                                 * O   R   C   A *
                                 *****************

           --- An Ab Initio, DFT and Semiempirical electronic structure package ---

                  #######################################################
                  #                        -***-                        #
                  #  Department of molecular theory and spectroscopy    #
                  #              Directorship: Frank Neese              #
                  # Max Planck Institute for Chemical Energy Conversion #
                  #                  D-45470 Muelheim/Ruhr              #
                  #                       Germany                       #
                  #                                                     #
                  #                  All rights reserved                #
                  #                        -***-                        #
                  #######################################################


                         Program Version 4.0.0 -  RELEASE  -


 With contributions from (in alphabetic order):
   Daniel Aravena         : Magnetic Properties
   Michael Atanasov       : Ab Initio Ligand Field Theory
   Ute Becker             : Parallelization
   Martin Brehm           : Molecular dynamics
   Dmytro Bykov           : SCF Hessian
   Vijay G. Chilkuri      : MRCI spin determinant printing
   Dipayan Datta          : RHF DLPNO-CCSD density
   Achintya Kumar Dutta   : EOM-CC, STEOM-CC
   Dmitry Ganyushin       : Spin-Orbit,Spin-Spin,Magnetic field MRCI
   Yang Guo               : DLPNO-NEVPT2, CIM, IAO-localization
   Andreas Hansen         : Spin unrestricted coupled pair/coupled cluster methods
   Lee Huntington         : MR-EOM, pCC
   Robert Izsak           : Overlap fitted RIJCOSX, COSX-SCS-MP3, EOM
   Christian Kollmar      : KDIIS, OOCD, Brueckner-CCSD(T), CCSD density
   Simone Kossmann        : Meta GGA functionals, TD-DFT gradient, OOMP2, MP2 Hessian
   Martin Krupicka        : AUTO-CI
   Dagmar Lenk            : GEPOL surface
   Dimitrios Liakos       : Extrapolation schemes; parallel MDCI
   Dimitrios Manganas     : ROCIS; embedding schemes
   Dimitrios Pantazis     : SARC Basis sets
   Taras Petrenko         : DFT Hessian,TD-DFT gradient, ASA, ECA, R-Raman, ABS, FL, XAS/XES, NRVS
   Peter Pinski           : DLPNO-MP2
   Christoph Reimann      : Effective Core Potentials
   Marius Retegan         : Local ZFS, SOC
   Christoph Riplinger    : Optimizer, TS searches, QM/MM, DLPNO-CCSD(T), (RO)-DLPNO pert. Triples
   Tobias Risthaus        : Range-separated hybrids, TD-DFT gradient, RPA, STAB
   Michael Roemelt        : Restricted open shell CIS
   Masaaki Saitow         : Open-shell DLPNO
   Barbara Sandhoefer     : DKH picture change effects
   Kantharuban Sivalingam : CASSCF convergence, NEVPT2, FIC-MRCI
   Georgi Stoychev        : AutoAux
   Boris Wezisla          : Elementary symmetry handling
   Frank Wennmohs         : Technical directorship


 We gratefully acknowledge several colleagues who have allowed us to
 interface, adapt or use parts of their codes:
   Stefan Grimme, W. Hujo, H. Kruse,             : VdW corrections, initial TS optimization,
                  C. Bannwarth                     DFT functionals, gCP, sTDA/sTD-DF
   Ed Valeev                                     : LibInt (2-el integral package), F12 methods
   Garnet Chan, S. Sharma, J. Yang, R. Olivares  : DMRG
   Ulf Ekstrom                                   : XCFun DFT Library
   Mihaly Kallay                                 : mrcc  (arbitrary order and MRCC methods)
   Jiri Pittner, Ondrej Demel                    : Mk-CCSD
   Frank Weinhold                                : gennbo (NPA and NBO analysis)
   Christopher J. Cramer and Donald G. Truhlar   : smd solvation model


 Your calculation uses the libint2 library for the computation of 2-el integrals
 For citations please refer to: http://libint.valeyev.net

 This ORCA versions uses:
   CBLAS   interface :  Fast vector & matrix operations
   LAPACKE interface :  Fast linear algebra routines
   SCALAPACK package :  Parallel linear algebra routines


Your calculation utilizes the atom-pairwise dispersion correction
with the zero-damping scheme (D30)
Cite in your paper:
S.Grimme, J.Antony, S.Ehrlich and H.Krieg, J.Chem.Phys., 132, (2010), 154104 
   

XCFun DFT library Copyright 2009-2010 Ulf Ekstrom and contributors.
See http://admol.org/xcfun for more information. This is free soft-
ware; see the source code for copying conditions. There is ABSOLUTELY
NO WARRANTY; not even for MERCHANTABILITY or FITNESS FOR A PARTICULAR
PURPOSE. For details see the documentation. Scientific users of this 
library should cite U. Ekstrom, L. Visscher, R. Bast, A. J. Thorvald-
sen and K. Ruud; J.Chem.Theor.Comp. 2010, DOI: 10.1021/ct100117s
XCFun Version 0.99 
Your calculation utilizes the basis: def2-TZVP
   F. Weigend and R. Ahlrichs, Phys. Chem. Chem. Phys. 7, 3297 (2005).

Your calculation utilizes the auxiliary basis: def2/J
   F. Weigend, Phys. Chem. Chem. Phys. 8, 1057 (2006).

================================================================================
                                        WARNINGS
                       Please study these warnings very carefully!
================================================================================

Warning: TCutStore was < 0. Adjusted to Thresh (uncritical)
INFO   : Checking CIS options ...

WARNING: CIS/ROCIS methods need fully converged wavefunctions
  ===> : Setting SCFConvForced true
         You can overwrite this default with %scf ConvForced false 


INFO   : the flag for use of LIBINT has been found!

Your calculation utilizes the atom-pairwise dispersion correction
with the zero-damping scheme (D30)
Cite in your paper:
S.Grimme, J.Antony, S.Ehrlich and H.Krieg, J.Chem.Phys., 132, (2010), 154104 
   

XCFun DFT library Copyright 2009-2010 Ulf Ekstrom and contributors.
See http://admol.org/xcfun for more information. This is free soft-
ware; see the source code for copying conditions. There is ABSOLUTELY
NO WARRANTY; not even for MERCHANTABILITY or FITNESS FOR A PARTICULAR
PURPOSE. For details see the documentation. Scientific users of this 
library should cite U. Ekstrom, L. Visscher, R. Bast, A. J. Thorvald-
sen and K. Ruud; J.Chem.Theor.Comp. 2010, DOI: 10.1021/ct100117s
XCFun Version 0.99 
Your calculation utilizes the basis: def2-TZVP
   F. Weigend and R. Ahlrichs, Phys. Chem. Chem. Phys. 7, 3297 (2005).

Your calculation utilizes the auxiliary basis: def2/J
   F. Weigend, Phys. Chem. Chem. Phys. 8, 1057 (2006).

================================================================================
                                        WARNINGS
                       Please study these warnings very carefully!
================================================================================

INFO   : Checking CIS options ...

INFO   : the flag for use of LIBINT has been found!

================================================================================
                                       INPUT FILE
================================================================================
NAME = total.inp
|  1> # 
|  2> !wB97X-D3 def2-TZVP def2/J RIJCOSX Grid5 FinalGrid6 TightSCF
|  3> %pal 
|  4>  nprocs 24
|  5> end
|  6> %tddft
|  7>   Mode sTDDFT
|  8>   nroots 2
|  9>   Ethresh 10.0
| 10>   maxcore 5000
| 11>   triplets true
| 12> end
| 13> * xyz 0 1 
| 14> C -5.51581086 2.89787280 1.16217996
| 15> C -4.68429351 1.83071854 0.83255291
| 16> C -5.24310849 0.68555762 0.23321621
| 17> C -6.64125967 0.67632768 -0.03328464
| 18> C -7.48224918 1.74808846 0.30322376
| 19> C -6.89807963 2.85760060 0.90842353
| 20> C -4.71954077 -0.57744450 -0.26471137
| 21> C -5.83149378 -1.26946059 -0.82996774
| 22> N -6.97402137 -0.51015666 -0.66316154
| 23> C -5.71616226 -2.51561779 -1.46388499
| 24> C -4.44448213 -3.07822714 -1.54492094
| 25> C -3.33355886 -2.42696079 -0.99303529
| 26> C -3.43890472 -1.18917747 -0.33121869
| 27> H -2.35932854 -2.90459302 -1.05345699
| 28> H -7.89951420 -0.76635068 -0.98453632
| 29> H -4.30923536 -4.03833928 -2.03446131
| 30> H -3.62046627 1.89638340 1.03567529
| 31> H -8.54772248 1.71396169 0.09246376
| 32> H -7.51723400 3.70749958 1.18257223
| 33> H -5.08861587 3.78263006 1.62581346
| 34> C 3.46176823 0.20220815 0.93977477
| 35> N 3.07488138 0.96322658 1.97400847
| 36> O 1.71786186 0.91602662 2.02801759
| 37> C 1.25072285 0.14324511 1.03652445
| 38> C 2.31052499 -0.34940012 0.29990557
| 39> C -0.18868364 -0.03716065 0.90712841
| 40> N -1.05935944 0.54130527 1.74742884
| 41> O -2.29928220 0.16659794 1.33693179
| 42> C -2.21933394 -0.62747688 0.25910642
| 43> C -0.88668631 -0.80924682 -0.06539237
| 44> H -0.47321748 -1.38195659 -0.88265948
| 45> H 2.24984389 -0.97042708 -0.58100774
| 46> C 7.01785280 3.04631356 2.08071723
| 47> S 5.36149022 2.45146956 2.13118632
| 48> C 5.77603045 1.09772136 1.07786161
| 49> C 7.15674409 1.13322065 0.73755087
| 50> C 7.83708432 2.26168917 1.32776036
| 51> C 7.69750520 0.13904583 -0.09557718
| 52> C 6.84005089 -0.86480273 -0.54433645
| 53> C 5.45218669 -0.90658286 -0.21686812
| 54> C 4.89046600 0.11147292 0.59809615
| 55> S 7.29620946 -2.23547770 -1.56166728
| 56> C 5.65432626 -2.86047453 -1.51105967
| 57> C 4.81399486 -2.07407634 -0.78263592
| 58> H 8.89375764 2.46022808 1.18225698
| 59> H 3.77241864 -2.32913926 -0.62848791
| 60> H 5.39278421 -3.78188332 -2.01646095
| 61> H 7.30900668 3.93831689 2.62203455
| 62> H -6.58431154 -3.01603428 -1.88330580
| 63> H 8.74844487 0.15193898 -0.37111282
| 64> *
| 65> $new_job
| 66> # 
| 67> !wB97X-D3 def2-TZVP def2/J RIJCOSX Grid5 FinalGrid6 TightSCF
| 68> %pal 
| 69>  nprocs 24
| 70> end
| 71> %elprop
| 72>    dipole     true
| 73>    quadrupole true
| 74> end
| 75> %tddft
| 76>   Mode sTDDFT
| 77>   nroots 2
| 78>   Ethresh 10.0
| 79>   maxcore 5000
| 80> end
| 81> * xyz 0 1 
| 82> C -5.51581086 2.89787280 1.16217996
| 83> C -4.68429351 1.83071854 0.83255291
| 84> C -5.24310849 0.68555762 0.23321621
| 85> C -6.64125967 0.67632768 -0.03328464
| 86> C -7.48224918 1.74808846 0.30322376
| 87> C -6.89807963 2.85760060 0.90842353
| 88> C -4.71954077 -0.57744450 -0.26471137
| 89> C -5.83149378 -1.26946059 -0.82996774
| 90> N -6.97402137 -0.51015666 -0.66316154
| 91> C -5.71616226 -2.51561779 -1.46388499
| 92> C -4.44448213 -3.07822714 -1.54492094
| 93> C -3.33355886 -2.42696079 -0.99303529
| 94> C -3.43890472 -1.18917747 -0.33121869
| 95> H -2.35932854 -2.90459302 -1.05345699
| 96> H -7.89951420 -0.76635068 -0.98453632
| 97> H -4.30923536 -4.03833928 -2.03446131
| 98> H -3.62046627 1.89638340 1.03567529
| 99> H -8.54772248 1.71396169 0.09246376
|100> H -7.51723400 3.70749958 1.18257223
|101> H -5.08861587 3.78263006 1.62581346
|102> C 3.46176823 0.20220815 0.93977477
|103> N 3.07488138 0.96322658 1.97400847
|104> O 1.71786186 0.91602662 2.02801759
|105> C 1.25072285 0.14324511 1.03652445
|106> C 2.31052499 -0.34940012 0.29990557
|107> C -0.18868364 -0.03716065 0.90712841
|108> N -1.05935944 0.54130527 1.74742884
|109> O -2.29928220 0.16659794 1.33693179
|110> C -2.21933394 -0.62747688 0.25910642
|111> C -0.88668631 -0.80924682 -0.06539237
|112> H -0.47321748 -1.38195659 -0.88265948
|113> H 2.24984389 -0.97042708 -0.58100774
|114> C 7.01785280 3.04631356 2.08071723
|115> S 5.36149022 2.45146956 2.13118632
|116> C 5.77603045 1.09772136 1.07786161
|117> C 7.15674409 1.13322065 0.73755087
|118> C 7.83708432 2.26168917 1.32776036
|119> C 7.69750520 0.13904583 -0.09557718
|120> C 6.84005089 -0.86480273 -0.54433645
|121> C 5.45218669 -0.90658286 -0.21686812
|122> C 4.89046600 0.11147292 0.59809615
|123> S 7.29620946 -2.23547770 -1.56166728
|124> C 5.65432626 -2.86047453 -1.51105967
|125> C 4.81399486 -2.07407634 -0.78263592
|126> H 8.89375764 2.46022808 1.18225698
|127> H 3.77241864 -2.32913926 -0.62848791
|128> H 5.39278421 -3.78188332 -2.01646095
|129> H 7.30900668 3.93831689 2.62203455
|130> H -6.58431154 -3.01603428 -1.88330580
|131> H 8.74844487 0.15193898 -0.37111282
|132> *
|133> 
|134>                          ****END OF INPUT****
================================================================================


                 $$$$$$$$$$$$$$$$$$$$$$$$$$$$$$$$$$$$$$$$$$$$$$ 
                 $ THERE ARE  2 JOBS TO BE PROCESSED THIS RUN $
                 $$$$$$$$$$$$$$$$$$$$$$$$$$$$$$$$$$$$$$$$$$$$$$ 




                 $$$$$$$$$$$$$$$$  JOB NUMBER  1 $$$$$$$$$$$$$$


                       ****************************
                       * Single Point Calculation *
                       ****************************

---------------------------------
CARTESIAN COORDINATES (ANGSTROEM)
---------------------------------
  C     -5.515811    2.897873    1.162180
  C     -4.684294    1.830719    0.832553
  C     -5.243108    0.685558    0.233216
  C     -6.641260    0.676328   -0.033285
  C     -7.482249    1.748088    0.303224
  C     -6.898080    2.857601    0.908424
  C     -4.719541   -0.577445   -0.264711
  C     -5.831494   -1.269461   -0.829968
  N     -6.974021   -0.510157   -0.663162
  C     -5.716162   -2.515618   -1.463885
  C     -4.444482   -3.078227   -1.544921
  C     -3.333559   -2.426961   -0.993035
  C     -3.438905   -1.189177   -0.331219
  H     -2.359329   -2.904593   -1.053457
  H     -7.899514   -0.766351   -0.984536
  H     -4.309235   -4.038339   -2.034461
  H     -3.620466    1.896383    1.035675
  H     -8.547722    1.713962    0.092464
  H     -7.517234    3.707500    1.182572
  H     -5.088616    3.782630    1.625813
  C      3.461768    0.202208    0.939775
  N      3.074881    0.963227    1.974008
  O      1.717862    0.916027    2.028018
  C      1.250723    0.143245    1.036524
  C      2.310525   -0.349400    0.299906
  C     -0.188684   -0.037161    0.907128
  N     -1.059359    0.541305    1.747429
  O     -2.299282    0.166598    1.336932
  C     -2.219334   -0.627477    0.259106
  C     -0.886686   -0.809247   -0.065392
  H     -0.473217   -1.381957   -0.882659
  H      2.249844   -0.970427   -0.581008
  C      7.017853    3.046314    2.080717
  S      5.361490    2.451470    2.131186
  C      5.776030    1.097721    1.077862
  C      7.156744    1.133221    0.737551
  C      7.837084    2.261689    1.327760
  C      7.697505    0.139046   -0.095577
  C      6.840051   -0.864803   -0.544336
  C      5.452187   -0.906583   -0.216868
  C      4.890466    0.111473    0.598096
  S      7.296209   -2.235478   -1.561667
  C      5.654326   -2.860475   -1.511060
  C      4.813995   -2.074076   -0.782636
  H      8.893758    2.460228    1.182257
  H      3.772419   -2.329139   -0.628488
  H      5.392784   -3.781883   -2.016461
  H      7.309007    3.938317    2.622035
  H     -6.584312   -3.016034   -1.883306
  H      8.748445    0.151939   -0.371113

----------------------------
CARTESIAN COORDINATES (A.U.)
----------------------------
  NO LB      ZA    FRAG     MASS         X           Y           Z
   0 C     6.0000    0    12.011  -10.423372    5.476186    2.196202
   1 C     6.0000    0    12.011   -8.852032    3.459557    1.573297
   2 C     6.0000    0    12.011   -9.908039    1.295516    0.440715
   3 C     6.0000    0    12.011  -12.550162    1.278074   -0.062899
   4 C     6.0000    0    12.011  -14.139402    3.303408    0.573010
   5 C     6.0000    0    12.011  -13.035481    5.400083    1.716672
   6 C     6.0000    0    12.011   -8.918640   -1.091212   -0.500232
   7 C     6.0000    0    12.011  -11.019926   -2.398933   -1.568412
   8 N     7.0000    0    14.007  -13.178990   -0.964056   -1.253194
   9 C     6.0000    0    12.011  -10.801981   -4.753829   -2.766342
  10 C     6.0000    0    12.011   -8.398854   -5.817006   -2.919477
  11 C     6.0000    0    12.011   -6.299513   -4.586291   -1.876565
  12 C     6.0000    0    12.011   -6.498588   -2.247220   -0.625913
  13 H     1.0000    0     1.008   -4.458485   -5.488885   -1.990745
  14 H     1.0000    0     1.008  -14.927918   -1.448193   -1.860504
  15 H     1.0000    0     1.008   -8.143275   -7.631355   -3.844575
  16 H     1.0000    0     1.008   -6.841690    3.583645    1.957143
  17 H     1.0000    0     1.008  -16.152855    3.238918    0.174731
  18 H     1.0000    0     1.008  -14.205514    7.006159    2.234738
  19 H     1.0000    0     1.008   -9.616090    7.148135    3.072342
  20 C     6.0000    0    12.011    6.541794    0.382118    1.775917
  21 N     7.0000    0    14.007    5.810684    1.820234    3.730335
  22 O     8.0000    0    15.999    3.246288    1.731039    3.832398
  23 C     6.0000    0    12.011    2.363524    0.270694    1.958747
  24 C     6.0000    0    12.011    4.366259   -0.660271    0.566739
  25 C     6.0000    0    12.011   -0.356560   -0.070223    1.714224
  26 N     7.0000    0    14.007   -2.001899    1.022919    3.302162
  27 O     8.0000    0    15.999   -4.345014    0.314824    2.526435
  28 C     6.0000    0    12.011   -4.193933   -1.185759    0.489640
  29 C     6.0000    0    12.011   -1.675594   -1.529255   -0.123574
  30 H     1.0000    0     1.008   -0.894251   -2.611519   -1.667985
  31 H     1.0000    0     1.008    4.251589   -1.833841   -1.097946
  32 C     6.0000    0    12.011   13.261820    5.756698    3.931986
  33 S    16.0000    0    32.060   10.131748    4.632606    4.027358
  34 C     6.0000    0    12.011   10.915116    2.074393    2.036863
  35 C     6.0000    0    12.011   13.524286    2.141477    1.393769
  36 C     6.0000    0    12.011   14.809943    4.273973    2.509103
  37 C     6.0000    0    12.011   14.546177    0.262759   -0.180615
  38 C     6.0000    0    12.011   12.925823   -1.634240   -1.028647
  39 C     6.0000    0    12.011   10.303140   -1.713193   -0.409821
  40 C     6.0000    0    12.011    9.241641    0.210653    1.130238
  41 S    16.0000    0    32.060   13.787838   -4.224441   -2.951123
  42 C     6.0000    0    12.011   10.685128   -5.405513   -2.855489
  43 C     6.0000    0    12.011    9.097132   -3.919436   -1.478968
  44 H     1.0000    0     1.008   16.806766    4.649157    2.234142
  45 H     1.0000    0     1.008    7.128838   -4.401435   -1.187670
  46 H     1.0000    0     1.008   10.190885   -7.146724   -3.810559
  47 H     1.0000    0     1.008   13.812021    7.442340    4.954927
  48 H     1.0000    0     1.008  -12.442546   -5.699479   -3.558932
  49 H     1.0000    0     1.008   16.532165    0.287123   -0.701302

--------------------------------
INTERNAL COORDINATES (ANGSTROEM)
--------------------------------
 C      0   0   0     0.000000000000     0.00000000     0.00000000
 C      1   0   0     1.392441492516     0.00000000     0.00000000
 C      2   1   0     1.408144947985   119.14582312     0.00000000
 C      3   2   1     1.423353300126   118.34520833     1.06641401
 C      4   3   2     1.403272043742   122.60488860   358.61029872
 C      5   4   3     1.392313906259   117.47830506     0.66554994
 C      3   2   1     1.455070234551   135.13315551   178.49301391
 C      7   3   2     1.426478366149   106.03365006   183.48587040
 N      8   7   3     1.381932002807   109.27402445   358.42409370
 C      8   7   3     1.402875691736   123.08631326   177.46310220
 C     10   8   7     1.392934477618   117.39510494   359.35311522
 C     11  10   8     1.401026816712   120.87989624     0.98388827
 C     12  11  10     1.407553377149   122.32024834     0.25247820
 H     12  11  10     1.086695930504   118.98991469   178.58453637
 H      9   8   7     1.012647077458   125.33036987   179.17745705
 H     11  10   8     1.086166094127   119.79686821   180.47589528
 H      2   1   3     1.085034087788   119.65633609   179.67671750
 H      5   4   3     1.086654391720   121.13978916   180.26599793
 H      6   5   4     1.086663664529   119.59452055   179.93840160
 H      1   2   3     1.086391729960   119.36393747   179.92597764
 C     14  12  11     6.892775490663   122.88340987   173.57943865
 N     21  14  12     1.341070405206   103.60071499    33.75802756
 O     22  21  14     1.358913830575   107.39931941   351.72327505
 C     23  22  21     1.341070006945   109.78418985   359.59245355
 C     24  23  22     1.381480102268   109.41975971     0.32995060
 C     24  23  22     1.456427346922   118.77205589   180.34017904
 N     26  24  23     1.341194982829   122.17472570   359.86393776
 O     27  26  24     1.358794267717   106.50926734   179.84044976
 C     28  27  26     1.341139095042   110.58951361   359.80773514
 C     29  28  27     1.383578505739   108.88639011     0.60254211
 H     30  29  28     1.080221497251   128.00787803   180.75449161
 H     25  24  23     1.079520699514   126.66518482   182.38000527
 C     22  21  14     4.460679516020    91.62985622   189.85705134
 S     33  22  21     1.760659964276     8.63499570   149.95007179
 C     34  33  22     1.764644648644    91.20761615   343.66057624
 C     35  34  33     1.422477330235   110.58977497     0.70995946
 C     33  22  21     1.361513776950   104.44925177   344.82100120
 C     36  35  34     1.405314377108   119.84629747   179.89054858
 C     38  36  35     1.394390443012   117.61128420   359.19954315
 C     39  38  36     1.426586178279   123.05533739     1.23166526
 C     35  34  33     1.409640123264   126.32108803   181.77676409
 S     39  38  36     1.766859511121   125.80562164   181.61897979
 C     42  39  38     1.757544483119    91.03742742   178.54836794
 C     43  42  39     1.362049975084   112.73339569     0.60249112
 H     37  33  22     1.084964256358   123.69191855   182.84639071
 H     44  43  42     1.083374230917   122.23009607   181.65824831
 H     43  42  39     1.082972232346   120.97938551   181.03091901
 H     33  22  21     1.083265878491   129.35110949   168.36503068
 H     10   8   7     1.086284332801   121.19639689   179.94890039
 H     38  36  35     1.086535923109   120.93967098   179.66942728

---------------------------
INTERNAL COORDINATES (A.U.)
---------------------------
 C      0   0   0     0.000000000000     0.00000000     0.00000000
 C      1   0   0     2.631333078363     0.00000000     0.00000000
 C      2   1   0     2.661008308556   119.14582312     0.00000000
 C      3   2   1     2.689747929050   118.34520833     1.06641401
 C      4   3   2     2.651799854060   122.60488860   358.61029872
 C      5   4   3     2.631091975280   117.47830506     0.66554994
 C      3   2   1     2.749684248921   135.13315551   178.49301391
 C      7   3   2     2.695653447986   106.03365006   183.48587040
 N      8   7   3     2.611473021007   109.27402445   358.42409370
 C      8   7   3     2.651050857317   123.08631326   177.46310220
 C     10   8   7     2.632264685194   117.39510494   359.35311522
 C     11  10   8     2.647556989865   120.87989624     0.98388827
 C     12  11  10     2.659890401688   122.32024834     0.25247820
 H     12  11  10     2.053557699498   118.98991469   178.58453637
 H      9   8   7     1.913625646712   125.33036987   179.17745705
 H     11  10   8     2.052556453850   119.79686821   180.47589528
 H      2   1   3     2.050417271888   119.65633609   179.67671750
 H      5   4   3     2.053479202573   121.13978916   180.26599793
 H      6   5   4     2.053496725642   119.59452055   179.93840160
 H      1   2   3     2.052982843782   119.36393747   179.92597764
 C     14  12  11    13.025457979959   122.88340987   173.57943865
 N     21  14  12     2.534255792145   103.60071499    33.75802756
 O     22  21  14     2.567974979385   107.39931941   351.72327505
 C     23  22  21     2.534255039543   109.78418985   359.59245355
 C     24  23  22     2.610619052748   109.41975971     0.32995060
 C     24  23  22     2.752248819637   118.77205589   180.34017904
 N     26  24  23     2.534491209736   122.17472570   359.86393776
 O     27  26  24     2.567749038327   106.50926734   179.84044976
 C     28  27  26     2.534385597125   110.58951361   359.80773514
 C     29  28  27     2.614584460627   108.88639011     0.60254211
 H     30  29  28     2.041322793778   128.00787803   180.75449161
 H     25  24  23     2.039998477981   126.66518482   182.38000527
 C     22  21  14     8.429462656471    91.62985622   189.85705134
 S     33  22  21     3.327165147442     8.63499570   149.95007179
 C     34  33  22     3.334695109627    91.20761615   343.66057624
 C     35  34  33     2.688092585855   110.58977497     0.70995946
 C     33  22  21     2.572888165996   104.44925177   344.82100120
 C     36  35  34     2.655659304797   119.84629747   179.89054858
 C     38  36  35     2.635016061049   117.61128420   359.19954315
 C     39  38  36     2.695857183385   123.05533739     1.23166526
 C     35  34  33     2.663833780356   126.32108803   181.77676409
 S     39  38  36     3.338880593132   125.80562164   181.61897979
 C     42  39  38     3.321277741279    91.03742742   178.54836794
 C     43  42  39     2.573901433622   112.73339569     0.60249112
 H     37  33  22     2.050285309611   123.69191855   182.84639071
 H     44  43  42     2.047280596981   122.23009607   181.65824831
 H     43  42  39     2.046520929776   120.97938551   181.03091901
 H     33  22  21     2.047075840569   129.35110949   168.36503068
 H     10   8   7     2.052779892564   121.19639689   179.94890039
 H     38  36  35     2.053255329344   120.93967098   179.66942728

---------------------
BASIS SET INFORMATION
---------------------
There are 5 groups of distinct atoms

 Group   1 Type C   : 11s6p2d1f contracted to 5s3p2d1f pattern {62111/411/11/1}
 Group   2 Type N   : 11s6p2d1f contracted to 5s3p2d1f pattern {62111/411/11/1}
 Group   3 Type H   : 5s1p contracted to 3s1p pattern {311/1}
 Group   4 Type O   : 11s6p2d1f contracted to 5s3p2d1f pattern {62111/411/11/1}
 Group   5 Type S   : 14s9p3d1f contracted to 5s5p2d1f pattern {73211/51111/21/1}

Atom   0C    basis set group =>   1
Atom   1C    basis set group =>   1
Atom   2C    basis set group =>   1
Atom   3C    basis set group =>   1
Atom   4C    basis set group =>   1
Atom   5C    basis set group =>   1
Atom   6C    basis set group =>   1
Atom   7C    basis set group =>   1
Atom   8N    basis set group =>   2
Atom   9C    basis set group =>   1
Atom  10C    basis set group =>   1
Atom  11C    basis set group =>   1
Atom  12C    basis set group =>   1
Atom  13H    basis set group =>   3
Atom  14H    basis set group =>   3
Atom  15H    basis set group =>   3
Atom  16H    basis set group =>   3
Atom  17H    basis set group =>   3
Atom  18H    basis set group =>   3
Atom  19H    basis set group =>   3
Atom  20C    basis set group =>   1
Atom  21N    basis set group =>   2
Atom  22O    basis set group =>   4
Atom  23C    basis set group =>   1
Atom  24C    basis set group =>   1
Atom  25C    basis set group =>   1
Atom  26N    basis set group =>   2
Atom  27O    basis set group =>   4
Atom  28C    basis set group =>   1
Atom  29C    basis set group =>   1
Atom  30H    basis set group =>   3
Atom  31H    basis set group =>   3
Atom  32C    basis set group =>   1
Atom  33S    basis set group =>   5
Atom  34C    basis set group =>   1
Atom  35C    basis set group =>   1
Atom  36C    basis set group =>   1
Atom  37C    basis set group =>   1
Atom  38C    basis set group =>   1
Atom  39C    basis set group =>   1
Atom  40C    basis set group =>   1
Atom  41S    basis set group =>   5
Atom  42C    basis set group =>   1
Atom  43C    basis set group =>   1
Atom  44H    basis set group =>   3
Atom  45H    basis set group =>   3
Atom  46H    basis set group =>   3
Atom  47H    basis set group =>   3
Atom  48H    basis set group =>   3
Atom  49H    basis set group =>   3
-------------------------------
AUXILIARY BASIS SET INFORMATION
-------------------------------
There are 5 groups of distinct atoms

 Group   1 Type C   : 12s5p4d2f1g contracted to 6s4p3d1f1g pattern {711111/2111/211/2/1}
 Group   2 Type N   : 12s5p4d2f1g contracted to 6s4p3d1f1g pattern {711111/2111/211/2/1}
 Group   3 Type H   : 5s2p1d contracted to 3s1p1d pattern {311/2/1}
 Group   4 Type O   : 12s5p4d2f1g contracted to 6s4p3d1f1g pattern {711111/2111/211/2/1}
 Group   5 Type S   : 14s5p5d2f1g contracted to 8s4p3d1f1g pattern {71111111/2111/311/2/1}

Atom   0C    basis set group =>   1
Atom   1C    basis set group =>   1
Atom   2C    basis set group =>   1
Atom   3C    basis set group =>   1
Atom   4C    basis set group =>   1
Atom   5C    basis set group =>   1
Atom   6C    basis set group =>   1
Atom   7C    basis set group =>   1
Atom   8N    basis set group =>   2
Atom   9C    basis set group =>   1
Atom  10C    basis set group =>   1
Atom  11C    basis set group =>   1
Atom  12C    basis set group =>   1
Atom  13H    basis set group =>   3
Atom  14H    basis set group =>   3
Atom  15H    basis set group =>   3
Atom  16H    basis set group =>   3
Atom  17H    basis set group =>   3
Atom  18H    basis set group =>   3
Atom  19H    basis set group =>   3
Atom  20C    basis set group =>   1
Atom  21N    basis set group =>   2
Atom  22O    basis set group =>   4
Atom  23C    basis set group =>   1
Atom  24C    basis set group =>   1
Atom  25C    basis set group =>   1
Atom  26N    basis set group =>   2
Atom  27O    basis set group =>   4
Atom  28C    basis set group =>   1
Atom  29C    basis set group =>   1
Atom  30H    basis set group =>   3
Atom  31H    basis set group =>   3
Atom  32C    basis set group =>   1
Atom  33S    basis set group =>   5
Atom  34C    basis set group =>   1
Atom  35C    basis set group =>   1
Atom  36C    basis set group =>   1
Atom  37C    basis set group =>   1
Atom  38C    basis set group =>   1
Atom  39C    basis set group =>   1
Atom  40C    basis set group =>   1
Atom  41S    basis set group =>   5
Atom  42C    basis set group =>   1
Atom  43C    basis set group =>   1
Atom  44H    basis set group =>   3
Atom  45H    basis set group =>   3
Atom  46H    basis set group =>   3
Atom  47H    basis set group =>   3
Atom  48H    basis set group =>   3
Atom  49H    basis set group =>   3
-------------------------
ECP PARAMETER INFORMATION
-------------------------



--------------------------------------------------------------------------
[[20681,1],9]: A high-performance Open MPI point-to-point messaging module
was unable to find any relevant network interfaces:

Module: OpenFabrics (openib)
  Host: cx1-108-10-4

Another transport will be used instead, although this may result in
lower performance.
--------------------------------------------------------------------------


           ************************************************************
           *        Program running with 24 parallel MPI-processes    *
           *              working on a common directory               *
           ************************************************************
------------------------------------------------------------------------------
                           ORCA GTO INTEGRAL CALCULATION
                           -- RI-GTO INTEGRALS CHOSEN --
------------------------------------------------------------------------------

                         BASIS SET STATISTICS AND STARTUP INFO

Gaussian basis set:
 # of primitive gaussian shells          ...  804
 # of primitive gaussian functions       ... 1764
 # of contracted shells                  ...  449
 # of contracted basis functions         ... 1187
 Highest angular momentum                ...    3
 Maximum contraction depth               ...    7
Auxiliary gaussian basis set:
 # of primitive gaussian shells          ...  966
 # of primitive gaussian functions       ... 2704
 # of contracted shells                  ...  604
 # of contracted aux-basis functions     ... 1884
 Highest angular momentum                ...    4
 Maximum contraction depth               ...    7
Ratio of auxiliary to basis functions    ...  1.59
Integral package used                  ... LIBINT
 One Electron integrals                  
   ECP integrals                         ... done
 Ordering auxiliary basis shells         ... done
 Integral threshhold             Thresh  ...  2.500e-11
 Primitive cut-off               TCut    ...  2.500e-12
 Pre-screening matrix                    ... done
 Shell pair data                         ... 
 Ordering of the shell pairs             ... done (   0.017 sec) 50345 of 101025 pairs
 Determination of significant pairs      ... done (   0.000 sec)
 Creation of shell pair data             ... done (   0.012 sec)
 Storage of shell pair data              ... done (   0.129 sec)
 Shell pair data done in (   0.159 sec)
 Computing two index integrals           ... done
 Cholesky decomposition of the V-matrix  ... done


Timings:
 Total evaluation time                   ...   6.169 sec (  0.103 min)
 One electron matrix time                ...   1.837 sec (  0.031 min) = 29.8%
 Schwartz matrix evaluation time         ...   2.739 sec (  0.046 min) = 44.4%
 Two index repulsion integral time       ...   0.755 sec (  0.013 min) = 12.2%
 Cholesky decomposition of V             ...   0.642 sec (  0.011 min) = 10.4%
 Three index repulsion integral time     ...   0.000 sec (  0.000 min) =  0.0%

--------------------------------------------------------------------------
[[20615,1],3]: A high-performance Open MPI point-to-point messaging module
was unable to find any relevant network interfaces:

Module: OpenFabrics (openib)
  Host: cx1-108-10-4

Another transport will be used instead, although this may result in
lower performance.
--------------------------------------------------------------------------


           ************************************************************
           *        Program running with 24 parallel MPI-processes    *
           *              working on a common directory               *
           ************************************************************
-------------------------------------------------------------------------------
                                 ORCA SCF
-------------------------------------------------------------------------------

------------
SCF SETTINGS
------------
Hamiltonian:
 Density Functional     Method          .... DFT(GTOs)
 Exchange Functional    Exchange        .... WB97X-D3
 Correlation Functional Correlation     .... WB97X-D3
 Gradients option       PostSCFGGA      .... off
 Hybrid DFT is turned on
   Fraction HF Exchange ScalHFX         ....  0.195728
   Scaling of DF-GGA-X  ScalDFX         ....  0.000000
   Scaling of DF-GGA-C  ScalDFC         ....  1.000000
   Scaling of DF-LDA-C  ScalLDAC        ....  1.000000
   Perturbative correction              ....  0.000000
 Long-range corrected/Screened/Range-Separated Hybrid DFT is turned on
   Amount of maximum screened exact exchange              ....  0.804272
   Range separation parameter mu (erf(mu*r12)/r12)        ....  0.250000
 RI-approximation to the Coulomb term is turned on
   Number of auxiliary basis functions  .... 1884
   RIJ-COSX (HFX calculated with COS-X)).... on


General Settings:
 Integral files         IntName         .... total
 Hartree-Fock type      HFTyp           .... RHF
 Total Charge           Charge          ....    0
 Multiplicity           Mult            ....    1
 Number of Electrons    NEL             ....  252
 Basis Dimension        Dim             .... 1187
 Nuclear Repulsion      ENuc            ....   3445.0621782127 Eh

Convergence Acceleration:
 DIIS                   CNVDIIS         .... on
   Start iteration      DIISMaxIt       ....    12
   Startup error        DIISStart       ....  0.200000
   # of expansion vecs  DIISMaxEq       ....     5
   Bias factor          DIISBfac        ....   1.050
   Max. coefficient     DIISMaxC        ....  10.000
 Newton-Raphson         CNVNR           .... off
 SOSCF                  CNVSOSCF        .... on
   Start iteration      SOSCFMaxIt      ....   150
   Startup grad/error   SOSCFStart      ....  0.003300
 Level Shifting         CNVShift        .... on
   Level shift para.    LevelShift      ....    0.2500
   Turn off err/grad.   ShiftErr        ....    0.0010
 Zerner damping         CNVZerner       .... off
 Static damping         CNVDamp         .... on
   Fraction old density DampFac         ....    0.7000
   Max. Damping (<1)    DampMax         ....    0.9800
   Min. Damping (>=0)   DampMin         ....    0.0000
   Turn off err/grad.   DampErr         ....    0.1000
 Fernandez-Rico         CNVRico         .... off

SCF Procedure:
 Maximum # iterations   MaxIter         ....   125
 SCF integral mode      SCFMode         .... Direct
   Integral package                     .... LIBINT
 Reset frequeny         DirectResetFreq ....    20
 Integral Threshold     Thresh          ....  2.500e-11 Eh
 Primitive CutOff       TCut            ....  2.500e-12 Eh

Convergence Tolerance:
 Convergence Check Mode ConvCheckMode   .... Total+1el-Energy
 Convergence forced     ConvForced      .... 1
 Energy Change          TolE            ....  1.000e-08 Eh
 1-El. energy change                    ....  1.000e-05 Eh
 Orbital Gradient       TolG            ....  1.000e-05
 Orbital Rotation angle TolX            ....  1.000e-05
 DIIS Error             TolErr          ....  5.000e-07


Diagonalization of the overlap matrix:
Smallest eigenvalue                        ... 4.491e-06
Time for diagonalization                   ...    0.472 sec
Threshold for overlap eigenvalues          ... 1.000e-08
Number of eigenvalues below threshold      ... 0
Time for construction of square roots      ...    0.543 sec
Total time needed                          ...    1.022 sec

-------------------
DFT GRID GENERATION
-------------------

General Integration Accuracy     IntAcc      ...  5.010
Radial Grid Type                 RadialGrid  ... Gauss-Chebyshev
Angular Grid (max. acc.)         AngularGrid ... Lebedev-434
Angular grid pruning method      GridPruning ... 3 (G Style)
Weight generation scheme         WeightScheme... Becke
Basis function cutoff            BFCut       ...    1.0000e-11
Integration weight cutoff        WCut        ...    1.0000e-14
Grids for H and He will be reduced by one unit

# of grid points (after initial pruning)     ... 476858 (   0.0 sec)
# of grid points (after weights+screening)   ... 417502 (   2.0 sec)
nearest neighbour list constructed           ...    0.0 sec
Grid point re-assignment to atoms done       ...    0.2 sec
Grid point division into batches done        ...    4.5 sec
Reduced shell lists constructed in    5.4 sec

Total number of grid points                  ...   417502
Total number of batches                      ...     6548
Average number of points per batch           ...       63
Average number of grid points per atom       ...     8350
Average number of shells per batch           ...   134.75 (30.01%)
Average number of basis functions per batch  ...   348.80 (29.38%)
Average number of large shells per batch     ...    93.04 (69.05%)
Average number of large basis fcns per batch ...   240.59 (68.98%)
Maximum spatial batch extension              ...   8.95, 13.16, 13.85 au
Average spatial batch extension              ...   0.05,  0.06,  0.06 au

Time for grid setup =    8.956 sec

------------------------------
INITIAL GUESS: MODEL POTENTIAL
------------------------------
Loading Hartree-Fock densities                     ... done
Calculating cut-offs                               ... done
Setting up the integral package                    ... done
Initializing the effective Hamiltonian             ... done
Starting the Coulomb interaction                   ... done (   0.7 sec)
Reading the grid                                   ... done
Mapping shells                                     ... done
Starting the XC term evaluation                    ... done (   2.4 sec)
  promolecular density results
     # of electrons  =    251.992730119
     EX              =   -233.437875137
     EC              =     -8.725278680
     EX+EC           =   -242.163153817
Transforming the Hamiltonian                       ... done (   0.3 sec)
Diagonalizing the Hamiltonian                      ... done (   0.5 sec)
Back transforming the eigenvectors                 ... done (   0.2 sec)
Now organizing SCF variables                       ... done
                      ------------------
                      INITIAL GUESS DONE (  13.2 sec)
                      ------------------
--------------------
COSX GRID GENERATION
--------------------

General Integration Accuracy     IntAcc      ...  3.340
Radial Grid Type                 RadialGrid  ... Gauss-Chebyshev
Angular Grid (max. acc.)         AngularGrid ... Lebedev-50
Angular grid pruning method      GridPruning ... 3 (G Style)
Weight generation scheme         WeightScheme... Becke
Basis function cutoff            BFCut       ...    1.0000e-11
Integration weight cutoff        WCut        ...    1.0000e-14
Grids for H and He will be reduced by one unit

# of grid points (after initial pruning)     ...  25310 (   0.0 sec)
# of grid points (after weights+screening)   ...  23074 (   0.1 sec)
nearest neighbour list constructed           ...    0.0 sec
Grid point re-assignment to atoms done       ...    0.0 sec
Grid point division into batches done        ...    0.0 sec
Reduced shell lists constructed in    0.1 sec

Total number of grid points                  ...    23074
Total number of batches                      ...      384
Average number of points per batch           ...       60
Average number of grid points per atom       ...      461
Average number of shells per batch           ...   147.53 (32.86%)
Average number of basis functions per batch  ...   385.65 (32.49%)
Average number of large shells per batch     ...   103.76 (70.33%)
Average number of large basis fcns per batch ...   272.12 (70.56%)
Maximum spatial batch extension              ...   4.01,  8.83, 20.10 au
Average spatial batch extension              ...   0.09,  0.16,  0.24 au

Overlap Fitting                  UseSFitting ... on
Constructing numerical overlap ... done (      0.2 sec)
Inverting numerical overlap    ... done (      0.2 sec)
Obtaining analytic overlap     ... done (      0.0 sec)
Final contraction and storage  ... done (      0.6 sec)


General Integration Accuracy     IntAcc      ...  3.670
Radial Grid Type                 RadialGrid  ... Gauss-Chebyshev
Angular Grid (max. acc.)         AngularGrid ... Lebedev-50
Angular grid pruning method      GridPruning ... 3 (G Style)
Weight generation scheme         WeightScheme... Becke
Basis function cutoff            BFCut       ...    1.0000e-11
Integration weight cutoff        WCut        ...    1.0000e-14
Grids for H and He will be reduced by one unit

# of grid points (after initial pruning)     ...  31626 (   0.0 sec)
# of grid points (after weights+screening)   ...  28733 (   0.1 sec)
nearest neighbour list constructed           ...    0.0 sec
Grid point re-assignment to atoms done       ...    0.0 sec
Grid point division into batches done        ...    0.0 sec
Reduced shell lists constructed in    0.1 sec

Total number of grid points                  ...    28733
Total number of batches                      ...      479
Average number of points per batch           ...       59
Average number of grid points per atom       ...      575
Average number of shells per batch           ...   146.38 (32.60%)
Average number of basis functions per batch  ...   381.71 (32.16%)
Average number of large shells per batch     ...   102.38 (69.94%)
Average number of large basis fcns per batch ...   267.52 (70.08%)
Maximum spatial batch extension              ...   5.53, 10.60, 22.09 au
Average spatial batch extension              ...   0.10,  0.14,  0.21 au

Overlap Fitting                  UseSFitting ... on
Constructing numerical overlap ... done (      0.2 sec)
Inverting numerical overlap    ... done (      0.2 sec)
Obtaining analytic overlap     ... done (      0.0 sec)
Final contraction and storage  ... done (      0.6 sec)


General Integration Accuracy     IntAcc      ...  4.010
Radial Grid Type                 RadialGrid  ... Gauss-Chebyshev
Angular Grid (max. acc.)         AngularGrid ... Lebedev-110
Angular grid pruning method      GridPruning ... 3 (G Style)
Weight generation scheme         WeightScheme... Becke
Basis function cutoff            BFCut       ...    1.0000e-11
Integration weight cutoff        WCut        ...    1.0000e-14
Grids for H and He will be reduced by one unit

# of grid points (after initial pruning)     ...  61636 (   0.0 sec)
# of grid points (after weights+screening)   ...  55503 (   0.3 sec)
nearest neighbour list constructed           ...    0.0 sec
Grid point re-assignment to atoms done       ...    0.0 sec
Grid point division into batches done        ...    0.1 sec
Reduced shell lists constructed in    0.2 sec

Total number of grid points                  ...    55503
Total number of batches                      ...      891
Average number of points per batch           ...       62
Average number of grid points per atom       ...     1110
Average number of shells per batch           ...   145.23 (32.35%)
Average number of basis functions per batch  ...   380.77 (32.08%)
Average number of large shells per batch     ...   102.36 (70.48%)
Average number of large basis fcns per batch ...   267.38 (70.22%)
Maximum spatial batch extension              ...   4.74,  8.66, 17.06 au
Average spatial batch extension              ...   0.09,  0.10,  0.14 au

Overlap Fitting                  UseSFitting ... on
Constructing numerical overlap ... done (      0.3 sec)
Inverting numerical overlap    ... done (      0.2 sec)
Obtaining analytic overlap     ... done (      0.0 sec)
Final contraction and storage  ... done (      0.6 sec)

Time for X-Grid setup             =    4.483 sec
--------------
SCF ITERATIONS
--------------
ITER       Energy         Delta-E        Max-DP      RMS-DP      [F,P]     Damp
               ***  Starting incremental Fock matrix formation  ***
  0  -2186.5091759846   0.000000000000 0.03414090  0.00055043  0.1528764 0.7000
  1  -2186.7517836776  -0.242607692997 0.02907238  0.00045034  0.0895686 0.7000
                               ***Turning on DIIS***
  2  -2186.8777222169  -0.125938539349 0.06825516  0.00104115  0.0509668 0.0000
  3  -2187.0855028307  -0.207780613806 0.03538918  0.00031091  0.0391929 0.0000
  4  -2187.1170304463  -0.031527615613 0.02418727  0.00014519  0.0063573 0.0000
                      *** Initiating the SOSCF procedure ***
                           *** Shutting down DIIS ***
                      *** Re-Reading the Fockian *** 
                      *** Removing any level shift *** 
ITER      Energy       Delta-E        Grad      Rot      Max-DP    RMS-DP
  5  -2187.11813188  -0.0011014350  0.002463  0.002463  0.012104  0.000061
               *** Restarting incremental Fock matrix formation ***
  6  -2187.11842085  -0.0002889702  0.001245  0.003140  0.009764  0.000106
  7  -2187.11853521  -0.0001143579  0.000853  0.004494  0.010252  0.000082
  8  -2187.11856395  -0.0000287359  0.000340  0.001087  0.005724  0.000061
  9  -2187.11857875  -0.0000148066  0.000061  0.000229  0.000943  0.000010
 10  -2187.11857913  -0.0000003764  0.000061  0.000175  0.000485  0.000005
 11  -2187.11857957  -0.0000004420  0.000010  0.000043  0.000394  0.000002
 12  -2187.11857957   0.0000000028  0.000008  0.000015  0.000198  0.000001
                  ***Gradient check signals convergence***
              ***Rediagonalizing the Fockian in SOSCF/NRSCF***

               *****************************************************
               *                     SUCCESS                       *
               *           SCF CONVERGED AFTER  13 CYCLES          *
               *****************************************************

Old exchange energy                            =    -73.371768798 Eh
New exchange energy                            =    -73.372543087 Eh
Exchange energy change after final integration =     -0.000774289 Eh
Total energy after final integration           =  -2187.119353961 Eh
Final COS-X integration done in                =    56.951 sec

----------------
TOTAL SCF ENERGY
----------------

Total Energy       :        -2187.11935396 Eh          -59514.54328 eV

Components:
Nuclear Repulsion  :         3445.06217821 Eh           93744.90777 eV
Electronic Energy  :        -5632.18153217 Eh         -153259.45105 eV
One Electron Energy:        -9839.85884654 Eh         -267756.17168 eV
Two Electron Energy:         4207.67731437 Eh          114496.72062 eV

Virial components:
Potential Energy   :        -4365.59775963 Eh         -118793.95441 eV
Kinetic Energy     :         2178.47840567 Eh           59279.41113 eV
Virial Ratio       :            2.00396651


DFT components:
N(Alpha)           :      126.000006983952 electrons
N(Beta)            :      126.000006983952 electrons
N(Total)           :      252.000013967904 electrons
E(XC)              :     -173.209217775500 Eh       

---------------
SCF CONVERGENCE
---------------

  Last Energy change         ...   -1.0498e-07  Tolerance :   1.0000e-08
  Last MAX-Density change    ...    5.6097e-14  Tolerance :   1.0000e-07
  Last RMS-Density change    ...    1.0606e-16  Tolerance :   5.0000e-09
  Last Orbital Gradient      ...    2.3658e-06  Tolerance :   1.0000e-05
  Last Orbital Rotation      ...    9.5783e-06  Tolerance :   1.0000e-05

             **** THE GBW FILE WAS UPDATED (total.gbw) ****
             **** DENSITY FILE WAS UPDATED (total.scfp.tmp) ****
             **** ENERGY FILE WAS UPDATED (total.en.tmp) ****
----------------
ORBITAL ENERGIES
----------------

  NO   OCC          E(Eh)            E(eV) 
   0   2.0000     -88.980913     -2421.2938 
   1   2.0000     -88.969181     -2420.9745 
   2   2.0000     -19.342556      -526.3377 
   3   2.0000     -19.337904      -526.2111 
   4   2.0000     -14.486336      -394.1932 
   5   2.0000     -14.480917      -394.0458 
   6   2.0000     -14.474559      -393.8728 
   7   2.0000     -10.374647      -282.3085 
   8   2.0000     -10.372909      -282.2612 
   9   2.0000     -10.348845      -281.6064 
  10   2.0000     -10.341776      -281.4140 
  11   2.0000     -10.338342      -281.3206 
  12   2.0000     -10.330676      -281.1120 
  13   2.0000     -10.328124      -281.0425 
  14   2.0000     -10.325951      -280.9834 
  15   2.0000     -10.324930      -280.9556 
  16   2.0000     -10.322827      -280.8984 
  17   2.0000     -10.320066      -280.8233 
  18   2.0000     -10.313596      -280.6472 
  19   2.0000     -10.311042      -280.5777 
  20   2.0000     -10.308249      -280.5017 
  21   2.0000     -10.306865      -280.4640 
  22   2.0000     -10.305706      -280.4325 
  23   2.0000     -10.304242      -280.3927 
  24   2.0000     -10.303627      -280.3759 
  25   2.0000     -10.301666      -280.3226 
  26   2.0000     -10.299231      -280.2563 
  27   2.0000     -10.298819      -280.2451 
  28   2.0000     -10.297189      -280.2008 
  29   2.0000     -10.294748      -280.1343 
  30   2.0000     -10.289235      -279.9843 
  31   2.0000     -10.287879      -279.9474 
  32   2.0000     -10.287032      -279.9244 
  33   2.0000     -10.285248      -279.8758 
  34   2.0000     -10.276440      -279.6361 
  35   2.0000      -8.077671      -219.8046 
  36   2.0000      -8.065157      -219.4641 
  37   2.0000      -6.031281      -164.1195 
  38   2.0000      -6.027134      -164.0067 
  39   2.0000      -6.023988      -163.9210 
  40   2.0000      -6.018936      -163.7836 
  41   2.0000      -6.014401      -163.6602 
  42   2.0000      -6.011467      -163.5803 
  43   2.0000      -1.291830       -35.1525 
  44   2.0000      -1.285603       -34.9830 
  45   2.0000      -1.112052       -30.2605 
  46   2.0000      -1.030996       -28.0548 
  47   2.0000      -1.015377       -27.6298 
  48   2.0000      -0.996272       -27.1099 
  49   2.0000      -0.989822       -26.9344 
  50   2.0000      -0.984240       -26.7825 
  51   2.0000      -0.968906       -26.3653 
  52   2.0000      -0.942646       -25.6507 
  53   2.0000      -0.926358       -25.2075 
  54   2.0000      -0.920508       -25.0483 
  55   2.0000      -0.906799       -24.6753 
  56   2.0000      -0.902482       -24.5578 
  57   2.0000      -0.876785       -23.8585 
  58   2.0000      -0.855627       -23.2828 
  59   2.0000      -0.851056       -23.1584 
  60   2.0000      -0.845535       -23.0082 
  61   2.0000      -0.835218       -22.7274 
  62   2.0000      -0.811917       -22.0934 
  63   2.0000      -0.783535       -21.3211 
  64   2.0000      -0.773582       -21.0502 
  65   2.0000      -0.764128       -20.7930 
  66   2.0000      -0.740352       -20.1460 
  67   2.0000      -0.731543       -19.9063 
  68   2.0000      -0.719968       -19.5913 
  69   2.0000      -0.718925       -19.5629 
  70   2.0000      -0.712793       -19.3961 
  71   2.0000      -0.703511       -19.1435 
  72   2.0000      -0.677142       -18.4260 
  73   2.0000      -0.668199       -18.1826 
  74   2.0000      -0.659115       -17.9354 
  75   2.0000      -0.652853       -17.7650 
  76   2.0000      -0.632841       -17.2205 
  77   2.0000      -0.626758       -17.0550 
  78   2.0000      -0.620460       -16.8836 
  79   2.0000      -0.612947       -16.6791 
  80   2.0000      -0.610799       -16.6207 
  81   2.0000      -0.603448       -16.4207 
  82   2.0000      -0.593939       -16.1619 
  83   2.0000      -0.593789       -16.1578 
  84   2.0000      -0.574483       -15.6325 
  85   2.0000      -0.568531       -15.4705 
  86   2.0000      -0.565156       -15.3787 
  87   2.0000      -0.558386       -15.1945 
  88   2.0000      -0.552418       -15.0320 
  89   2.0000      -0.542704       -14.7677 
  90   2.0000      -0.536310       -14.5937 
  91   2.0000      -0.535296       -14.5661 
  92   2.0000      -0.533220       -14.5096 
  93   2.0000      -0.531142       -14.4531 
  94   2.0000      -0.528358       -14.3774 
  95   2.0000      -0.527796       -14.3621 
  96   2.0000      -0.515882       -14.0379 
  97   2.0000      -0.508030       -13.8242 
  98   2.0000      -0.501804       -13.6548 
  99   2.0000      -0.481915       -13.1136 
 100   2.0000      -0.479398       -13.0451 
 101   2.0000      -0.477798       -13.0015 
 102   2.0000      -0.473541       -12.8857 
 103   2.0000      -0.472997       -12.8709 
 104   2.0000      -0.472265       -12.8510 
 105   2.0000      -0.459479       -12.5031 
 106   2.0000      -0.450402       -12.2561 
 107   2.0000      -0.448918       -12.2157 
 108   2.0000      -0.447946       -12.1892 
 109   2.0000      -0.444476       -12.0948 
 110   2.0000      -0.437551       -11.9064 
 111   2.0000      -0.430721       -11.7205 
 112   2.0000      -0.428657       -11.6643 
 113   2.0000      -0.415049       -11.2940 
 114   2.0000      -0.403821       -10.9885 
 115   2.0000      -0.396995       -10.8028 
 116   2.0000      -0.393815       -10.7162 
 117   2.0000      -0.376080       -10.2336 
 118   2.0000      -0.374446       -10.1892 
 119   2.0000      -0.350514        -9.5380 
 120   2.0000      -0.340971        -9.2783 
 121   2.0000      -0.335428        -9.1275 
 122   2.0000      -0.314800        -8.5662 
 123   2.0000      -0.305334        -8.3086 
 124   2.0000      -0.294310        -8.0086 
 125   2.0000      -0.282759        -7.6943 
 126   0.0000      -0.005988        -0.1629 
 127   0.0000       0.000777         0.0212 
 128   0.0000       0.019398         0.5278 
 129   0.0000       0.045525         1.2388 
 130   0.0000       0.047936         1.3044 
 131   0.0000       0.079054         2.1512 
 132   0.0000       0.081629         2.2212 
 133   0.0000       0.086267         2.3474 
 134   0.0000       0.091508         2.4900 
 135   0.0000       0.102878         2.7994 
 136   0.0000       0.105492         2.8706 
 137   0.0000       0.109909         2.9908 
 138   0.0000       0.117375         3.1939 
 139   0.0000       0.118125         3.2143 
 140   0.0000       0.127903         3.4804 
 141   0.0000       0.136775         3.7218 
 142   0.0000       0.138422         3.7667 
 143   0.0000       0.144685         3.9371 
 144   0.0000       0.148620         4.0441 
 145   0.0000       0.153562         4.1786 
 146   0.0000       0.157278         4.2797 
 147   0.0000       0.159403         4.3376 
 148   0.0000       0.160997         4.3810 
 149   0.0000       0.163655         4.4533 
 150   0.0000       0.168718         4.5911 
 151   0.0000       0.170926         4.6511 
 152   0.0000       0.177226         4.8226 
 153   0.0000       0.179726         4.8906 
 154   0.0000       0.185018         5.0346 
 155   0.0000       0.186753         5.0818 
 156   0.0000       0.194541         5.2937 
 157   0.0000       0.197583         5.3765 
 158   0.0000       0.200416         5.4536 
 159   0.0000       0.203898         5.5483 
 160   0.0000       0.205832         5.6010 
 161   0.0000       0.210796         5.7361 
 162   0.0000       0.213332         5.8051 
 163   0.0000       0.218970         5.9585 
 164   0.0000       0.227381         6.1873 
 165   0.0000       0.229599         6.2477 
 166   0.0000       0.230915         6.2835 
 167   0.0000       0.243261         6.6195 
 168   0.0000       0.247057         6.7228 
 169   0.0000       0.249898         6.8001 
 170   0.0000       0.251802         6.8519 
 171   0.0000       0.256046         6.9674 
 172   0.0000       0.258482         7.0337 
 173   0.0000       0.259234         7.0541 
 174   0.0000       0.265769         7.2320 
 175   0.0000       0.269132         7.3235 
 176   0.0000       0.271987         7.4011 
 177   0.0000       0.273737         7.4488 
 178   0.0000       0.279674         7.6103 
 179   0.0000       0.280053         7.6206 
 180   0.0000       0.282866         7.6972 
 181   0.0000       0.285476         7.7682 
 182   0.0000       0.289627         7.8812 
 183   0.0000       0.292146         7.9497 
 184   0.0000       0.294880         8.0241 
 185   0.0000       0.295068         8.0292 
 186   0.0000       0.299954         8.1622 
 187   0.0000       0.303651         8.2628 
 188   0.0000       0.306099         8.3294 
 189   0.0000       0.309633         8.4255 
 190   0.0000       0.310480         8.4486 
 191   0.0000       0.314660         8.5623 
 192   0.0000       0.324282         8.8242 
 193   0.0000       0.326529         8.8853 
 194   0.0000       0.329527         8.9669 
 195   0.0000       0.330622         8.9967 
 196   0.0000       0.334280         9.0962 
 197   0.0000       0.337293         9.1782 
 198   0.0000       0.341284         9.2868 
 199   0.0000       0.345065         9.3897 
 200   0.0000       0.348488         9.4829 
 201   0.0000       0.349076         9.4988 
 202   0.0000       0.351404         9.5622 
 203   0.0000       0.357290         9.7223 
 204   0.0000       0.359305         9.7772 
 205   0.0000       0.363871         9.9014 
 206   0.0000       0.367599        10.0029 
 207   0.0000       0.368658        10.0317 
 208   0.0000       0.372163        10.1271 
 209   0.0000       0.373237        10.1563 
 210   0.0000       0.376463        10.2441 
 211   0.0000       0.377589        10.2747 
 212   0.0000       0.382039        10.3958 
 213   0.0000       0.383366        10.4319 
 214   0.0000       0.386522        10.5178 
 215   0.0000       0.388058        10.5596 
 216   0.0000       0.390064        10.6142 
 217   0.0000       0.393969        10.7204 
 218   0.0000       0.395997        10.7756 
 219   0.0000       0.399837        10.8801 
 220   0.0000       0.405933        11.0460 
 221   0.0000       0.408777        11.1234 
 222   0.0000       0.410462        11.1692 
 223   0.0000       0.417060        11.3488 
 224   0.0000       0.418975        11.4009 
 225   0.0000       0.420028        11.4295 
 226   0.0000       0.423131        11.5140 
 227   0.0000       0.426529        11.6065 
 228   0.0000       0.429565        11.6891 
 229   0.0000       0.430472        11.7137 
 230   0.0000       0.432653        11.7731 
 231   0.0000       0.434762        11.8305 
 232   0.0000       0.436313        11.8727 
 233   0.0000       0.441275        12.0077 
 234   0.0000       0.444748        12.1022 
 235   0.0000       0.447250        12.1703 
 236   0.0000       0.450668        12.2633 
 237   0.0000       0.453458        12.3392 
 238   0.0000       0.454953        12.3799 
 239   0.0000       0.461980        12.5711 
 240   0.0000       0.463346        12.6083 
 241   0.0000       0.467413        12.7190 
 242   0.0000       0.468047        12.7362 
 243   0.0000       0.472701        12.8628 
 244   0.0000       0.475731        12.9453 
 245   0.0000       0.476118        12.9558 
 246   0.0000       0.479860        13.0576 
 247   0.0000       0.482130        13.1194 
 248   0.0000       0.485196        13.2029 
 249   0.0000       0.486894        13.2491 
 250   0.0000       0.489550        13.3213 
 251   0.0000       0.491166        13.3653 
 252   0.0000       0.495045        13.4708 
 253   0.0000       0.497943        13.5497 
 254   0.0000       0.500435        13.6175 
 255   0.0000       0.503496        13.7008 
 256   0.0000       0.505333        13.7508 
 257   0.0000       0.507562        13.8115 
 258   0.0000       0.510015        13.8782 
 259   0.0000       0.515461        14.0264 
 260   0.0000       0.520093        14.1524 
 261   0.0000       0.521464        14.1897 
 262   0.0000       0.526595        14.3294 
 263   0.0000       0.527655        14.3582 
 264   0.0000       0.532676        14.4949 
 265   0.0000       0.539394        14.6776 
 266   0.0000       0.541045        14.7226 
 267   0.0000       0.543736        14.7958 
 268   0.0000       0.547183        14.8896 
 269   0.0000       0.550178        14.9711 
 270   0.0000       0.552469        15.0335 
 271   0.0000       0.552780        15.0419 
 272   0.0000       0.557486        15.1700 
 273   0.0000       0.560157        15.2426 
 274   0.0000       0.563608        15.3365 
 275   0.0000       0.565088        15.3768 
 276   0.0000       0.569586        15.4992 
 277   0.0000       0.570616        15.5273 
 278   0.0000       0.576634        15.6910 
 279   0.0000       0.583440        15.8762 
 280   0.0000       0.587788        15.9945 
 281   0.0000       0.591787        16.1033 
 282   0.0000       0.594056        16.1651 
 283   0.0000       0.599037        16.3006 
 284   0.0000       0.604993        16.4627 
 285   0.0000       0.611117        16.6293 
 286   0.0000       0.616970        16.7886 
 287   0.0000       0.619698        16.8628 
 288   0.0000       0.624717        16.9994 
 289   0.0000       0.630949        17.1690 
 290   0.0000       0.632372        17.2077 
 291   0.0000       0.638552        17.3759 
 292   0.0000       0.643244        17.5036 
 293   0.0000       0.647689        17.6245 
 294   0.0000       0.649821        17.6825 
 295   0.0000       0.652553        17.7569 
 296   0.0000       0.658249        17.9119 
 297   0.0000       0.663093        18.0437 
 298   0.0000       0.666667        18.1409 
 299   0.0000       0.671689        18.2776 
 300   0.0000       0.674399        18.3513 
 301   0.0000       0.678734        18.4693 
 302   0.0000       0.679121        18.4798 
 303   0.0000       0.683184        18.5904 
 304   0.0000       0.685738        18.6599 
 305   0.0000       0.686725        18.6867 
 306   0.0000       0.693767        18.8784 
 307   0.0000       0.694075        18.8867 
 308   0.0000       0.697418        18.9777 
 309   0.0000       0.703950        19.1554 
 310   0.0000       0.708620        19.2825 
 311   0.0000       0.710859        19.3435 
 312   0.0000       0.716804        19.5052 
 313   0.0000       0.718860        19.5612 
 314   0.0000       0.720879        19.6161 
 315   0.0000       0.728661        19.8279 
 316   0.0000       0.734230        19.9794 
 317   0.0000       0.735064        20.0021 
 318   0.0000       0.737856        20.0781 
 319   0.0000       0.738962        20.1082 
 320   0.0000       0.742369        20.2009 
 321   0.0000       0.746408        20.3108 
 322   0.0000       0.746690        20.3185 
 323   0.0000       0.751681        20.4543 
 324   0.0000       0.753954        20.5161 
 325   0.0000       0.758239        20.6327 
 326   0.0000       0.763019        20.7628 
 327   0.0000       0.766155        20.8481 
 328   0.0000       0.770502        20.9664 
 329   0.0000       0.774914        21.0865 
 330   0.0000       0.776326        21.1249 
 331   0.0000       0.779700        21.2167 
 332   0.0000       0.783564        21.3219 
 333   0.0000       0.787832        21.4380 
 334   0.0000       0.793338        21.5878 
 335   0.0000       0.793926        21.6038 
 336   0.0000       0.797313        21.6960 
 337   0.0000       0.799377        21.7522 
 338   0.0000       0.802912        21.8483 
 339   0.0000       0.807169        21.9642 
 340   0.0000       0.811098        22.0711 
 341   0.0000       0.815168        22.1818 
 342   0.0000       0.819557        22.3013 
 343   0.0000       0.821209        22.3462 
 344   0.0000       0.823199        22.4004 
 345   0.0000       0.828221        22.5370 
 346   0.0000       0.833832        22.6897 
 347   0.0000       0.836001        22.7487 
 348   0.0000       0.838778        22.8243 
 349   0.0000       0.844991        22.9934 
 350   0.0000       0.845936        23.0191 
 351   0.0000       0.856820        23.3152 
 352   0.0000       0.861568        23.4444 
 353   0.0000       0.863696        23.5024 
 354   0.0000       0.864192        23.5159 
 355   0.0000       0.871919        23.7261 
 356   0.0000       0.874692        23.8016 
 357   0.0000       0.880412        23.9572 
 358   0.0000       0.888733        24.1837 
 359   0.0000       0.891429        24.2570 
 360   0.0000       0.893850        24.3229 
 361   0.0000       0.902453        24.5570 
 362   0.0000       0.904577        24.6148 
 363   0.0000       0.908249        24.7147 
 364   0.0000       0.917518        24.9669 
 365   0.0000       0.918557        24.9952 
 366   0.0000       0.923307        25.1245 
 367   0.0000       0.925514        25.1845 
 368   0.0000       0.932992        25.3880 
 369   0.0000       0.936638        25.4872 
 370   0.0000       0.940790        25.6002 
 371   0.0000       0.944364        25.6975 
 372   0.0000       0.948909        25.8211 
 373   0.0000       0.952299        25.9134 
 374   0.0000       0.957733        26.0612 
 375   0.0000       0.959789        26.1172 
 376   0.0000       0.968314        26.3492 
 377   0.0000       0.972335        26.4586 
 378   0.0000       0.974260        26.5110 
 379   0.0000       0.983389        26.7594 
 380   0.0000       0.986707        26.8497 
 381   0.0000       0.991347        26.9759 
 382   0.0000       0.996647        27.1201 
 383   0.0000       0.999635        27.2015 
 384   0.0000       1.007997        27.4290 
 385   0.0000       1.012005        27.5381 
 386   0.0000       1.017253        27.6809 
 387   0.0000       1.021266        27.7901 
 388   0.0000       1.024394        27.8752 
 389   0.0000       1.030910        28.0525 
 390   0.0000       1.033818        28.1316 
 391   0.0000       1.036874        28.2148 
 392   0.0000       1.040073        28.3018 
 393   0.0000       1.049011        28.5450 
 394   0.0000       1.054162        28.6852 
 395   0.0000       1.057281        28.7701 
 396   0.0000       1.062051        28.8999 
 397   0.0000       1.067600        29.0509 
 398   0.0000       1.074328        29.2340 
 399   0.0000       1.080653        29.4061 
 400   0.0000       1.085350        29.5339 
 401   0.0000       1.092719        29.7344 
 402   0.0000       1.095909        29.8212 
 403   0.0000       1.098714        29.8975 
 404   0.0000       1.106512        30.1097 
 405   0.0000       1.114612        30.3301 
 406   0.0000       1.118622        30.4392 
 407   0.0000       1.126052        30.6414 
 408   0.0000       1.129423        30.7332 
 409   0.0000       1.133678        30.8489 
 410   0.0000       1.136814        30.9343 
 411   0.0000       1.140745        31.0412 
 412   0.0000       1.144149        31.1339 
 413   0.0000       1.149671        31.2841 
 414   0.0000       1.152532        31.3620 
 415   0.0000       1.158402        31.5217 
 416   0.0000       1.164054        31.6755 
 417   0.0000       1.170009        31.8376 
 418   0.0000       1.173977        31.9455 
 419   0.0000       1.182175        32.1686 
 420   0.0000       1.184741        32.2384 
 421   0.0000       1.189773        32.3754 
 422   0.0000       1.195767        32.5385 
 423   0.0000       1.198836        32.6220 
 424   0.0000       1.203260        32.7424 
 425   0.0000       1.209717        32.9181 
 426   0.0000       1.217656        33.1341 
 427   0.0000       1.221159        33.2294 
 428   0.0000       1.227960        33.4145 
 429   0.0000       1.230726        33.4898 
 430   0.0000       1.237338        33.6697 
 431   0.0000       1.245263        33.8853 
 432   0.0000       1.251001        34.0415 
 433   0.0000       1.254897        34.1475 
 434   0.0000       1.263712        34.3873 
 435   0.0000       1.267875        34.5006 
 436   0.0000       1.269999        34.5584 
 437   0.0000       1.276372        34.7319 
 438   0.0000       1.288579        35.0640 
 439   0.0000       1.290704        35.1218 
 440   0.0000       1.299893        35.3719 
 441   0.0000       1.304474        35.4965 
 442   0.0000       1.306377        35.5483 
 443   0.0000       1.316197        35.8155 
 444   0.0000       1.322336        35.9826 
 445   0.0000       1.326860        36.1057 
 446   0.0000       1.329653        36.1817 
 447   0.0000       1.337293        36.3896 
 448   0.0000       1.340956        36.4893 
 449   0.0000       1.345188        36.6044 
 450   0.0000       1.352051        36.7912 
 451   0.0000       1.359286        36.9881 
 452   0.0000       1.361885        37.0588 
 453   0.0000       1.366396        37.1815 
 454   0.0000       1.372540        37.3487 
 455   0.0000       1.375184        37.4207 
 456   0.0000       1.381042        37.5801 
 457   0.0000       1.390392        37.8345 
 458   0.0000       1.392725        37.8980 
 459   0.0000       1.402438        38.1623 
 460   0.0000       1.405005        38.2321 
 461   0.0000       1.406564        38.2745 
 462   0.0000       1.414271        38.4843 
 463   0.0000       1.415584        38.5200 
 464   0.0000       1.424137        38.7527 
 465   0.0000       1.429304        38.8934 
 466   0.0000       1.434941        39.0467 
 467   0.0000       1.437488        39.1160 
 468   0.0000       1.445217        39.3264 
 469   0.0000       1.448120        39.4054 
 470   0.0000       1.450691        39.4753 
 471   0.0000       1.456901        39.6443 
 472   0.0000       1.464723        39.8571 
 473   0.0000       1.473082        40.0846 
 474   0.0000       1.473545        40.0972 
 475   0.0000       1.478197        40.2238 
 476   0.0000       1.485930        40.4342 
 477   0.0000       1.491155        40.5764 
 478   0.0000       1.493649        40.6442 
 479   0.0000       1.497967        40.7618 
 480   0.0000       1.503639        40.9161 
 481   0.0000       1.506315        40.9889 
 482   0.0000       1.509088        41.0644 
 483   0.0000       1.514658        41.2159 
 484   0.0000       1.518582        41.3227 
 485   0.0000       1.526578        41.5403 
 486   0.0000       1.537011        41.8242 
 487   0.0000       1.541580        41.9485 
 488   0.0000       1.542305        41.9682 
 489   0.0000       1.552056        42.2336 
 490   0.0000       1.554179        42.2913 
 491   0.0000       1.562441        42.5162 
 492   0.0000       1.564591        42.5747 
 493   0.0000       1.566370        42.6231 
 494   0.0000       1.573822        42.8259 
 495   0.0000       1.577559        42.9276 
 496   0.0000       1.580688        43.0127 
 497   0.0000       1.587030        43.1853 
 498   0.0000       1.592330        43.3295 
 499   0.0000       1.597016        43.4570 
 500   0.0000       1.599998        43.5382 
 501   0.0000       1.602487        43.6059 
 502   0.0000       1.606227        43.7077 
 503   0.0000       1.609770        43.8041 
 504   0.0000       1.610648        43.8280 
 505   0.0000       1.614009        43.9194 
 506   0.0000       1.617999        44.0280 
 507   0.0000       1.620619        44.0993 
 508   0.0000       1.631461        44.3943 
 509   0.0000       1.633841        44.4591 
 510   0.0000       1.639092        44.6020 
 511   0.0000       1.643183        44.7133 
 512   0.0000       1.651567        44.9414 
 513   0.0000       1.654383        45.0180 
 514   0.0000       1.657108        45.0922 
 515   0.0000       1.659179        45.1486 
 516   0.0000       1.659586        45.1596 
 517   0.0000       1.665483        45.3201 
 518   0.0000       1.671007        45.4704 
 519   0.0000       1.674884        45.5759 
 520   0.0000       1.677305        45.6418 
 521   0.0000       1.681079        45.7445 
 522   0.0000       1.687559        45.9208 
 523   0.0000       1.692407        46.0527 
 524   0.0000       1.697237        46.1842 
 525   0.0000       1.702269        46.3211 
 526   0.0000       1.708193        46.4823 
 527   0.0000       1.711946        46.5844 
 528   0.0000       1.716105        46.6976 
 529   0.0000       1.723249        46.8920 
 530   0.0000       1.731168        47.1075 
 531   0.0000       1.735088        47.2142 
 532   0.0000       1.738887        47.3175 
 533   0.0000       1.741382        47.3854 
 534   0.0000       1.747624        47.5553 
 535   0.0000       1.753009        47.7018 
 536   0.0000       1.757509        47.8243 
 537   0.0000       1.758845        47.8606 
 538   0.0000       1.765558        48.0433 
 539   0.0000       1.770998        48.1913 
 540   0.0000       1.773679        48.2643 
 541   0.0000       1.778275        48.3893 
 542   0.0000       1.782020        48.4912 
 543   0.0000       1.784684        48.5637 
 544   0.0000       1.789725        48.7009 
 545   0.0000       1.791823        48.7580 
 546   0.0000       1.801215        49.0136 
 547   0.0000       1.807811        49.1930 
 548   0.0000       1.810305        49.2609 
 549   0.0000       1.814842        49.3844 
 550   0.0000       1.824842        49.6565 
 551   0.0000       1.831656        49.8419 
 552   0.0000       1.837525        50.0016 
 553   0.0000       1.842648        50.1410 
 554   0.0000       1.849735        50.3339 
 555   0.0000       1.852761        50.4162 
 556   0.0000       1.862214        50.6734 
 557   0.0000       1.868367        50.8408 
 558   0.0000       1.878497        51.1165 
 559   0.0000       1.888429        51.3868 
 560   0.0000       1.899918        51.6994 
 561   0.0000       1.900147        51.7056 
 562   0.0000       1.904911        51.8353 
 563   0.0000       1.909581        51.9623 
 564   0.0000       1.914960        52.1087 
 565   0.0000       1.917810        52.1863 
 566   0.0000       1.931195        52.5505 
 567   0.0000       1.934036        52.6278 
 568   0.0000       1.945229        52.9324 
 569   0.0000       1.947020        52.9811 
 570   0.0000       1.950417        53.0736 
 571   0.0000       1.955061        53.1999 
 572   0.0000       1.959788        53.3285 
 573   0.0000       1.962783        53.4101 
 574   0.0000       1.966573        53.5132 
 575   0.0000       1.971775        53.6547 
 576   0.0000       1.979318        53.8600 
 577   0.0000       1.982772        53.9540 
 578   0.0000       1.987068        54.0709 
 579   0.0000       1.989111        54.1265 
 580   0.0000       1.991228        54.1841 
 581   0.0000       2.000148        54.4268 
 582   0.0000       2.011915        54.7470 
 583   0.0000       2.016081        54.8603 
 584   0.0000       2.016928        54.8834 
 585   0.0000       2.024675        55.0942 
 586   0.0000       2.027306        55.1658 
 587   0.0000       2.031032        55.2672 
 588   0.0000       2.044400        55.6309 
 589   0.0000       2.049184        55.7611 
 590   0.0000       2.050021        55.7839 
 591   0.0000       2.062058        56.1115 
 592   0.0000       2.065343        56.2009 
 593   0.0000       2.069712        56.3197 
 594   0.0000       2.073940        56.4348 
 595   0.0000       2.078003        56.5453 
 596   0.0000       2.086644        56.7805 
 597   0.0000       2.088418        56.8287 
 598   0.0000       2.095631        57.0250 
 599   0.0000       2.099341        57.1260 
 600   0.0000       2.108593        57.3777 
 601   0.0000       2.118592        57.6498 
 602   0.0000       2.119397        57.6717 
 603   0.0000       2.127209        57.8843 
 604   0.0000       2.131442        57.9995 
 605   0.0000       2.136157        58.1278 
 606   0.0000       2.140316        58.2410 
 607   0.0000       2.148391        58.4607 
 608   0.0000       2.156112        58.6708 
 609   0.0000       2.160580        58.7924 
 610   0.0000       2.166379        58.9502 
 611   0.0000       2.173708        59.1496 
 612   0.0000       2.179146        59.2976 
 613   0.0000       2.181300        59.3562 
 614   0.0000       2.187229        59.5175 
 615   0.0000       2.191227        59.6263 
 616   0.0000       2.195755        59.7495 
 617   0.0000       2.204075        59.9759 
 618   0.0000       2.207210        60.0613 
 619   0.0000       2.216655        60.3183 
 620   0.0000       2.221489        60.4498 
 621   0.0000       2.226911        60.5973 
 622   0.0000       2.232776        60.7569 
 623   0.0000       2.236280        60.8523 
 624   0.0000       2.244464        61.0750 
 625   0.0000       2.248426        61.1828 
 626   0.0000       2.250487        61.2389 
 627   0.0000       2.261431        61.5367 
 628   0.0000       2.264013        61.6069 
 629   0.0000       2.267589        61.7042 
 630   0.0000       2.283044        62.1248 
 631   0.0000       2.287324        62.2413 
 632   0.0000       2.290918        62.3390 
 633   0.0000       2.294382        62.4333 
 634   0.0000       2.303658        62.6857 
 635   0.0000       2.311771        62.9065 
 636   0.0000       2.313291        62.9479 
 637   0.0000       2.320121        63.1337 
 638   0.0000       2.321019        63.1581 
 639   0.0000       2.326852        63.3169 
 640   0.0000       2.330689        63.4213 
 641   0.0000       2.337559        63.6082 
 642   0.0000       2.345101        63.8134 
 643   0.0000       2.345426        63.8223 
 644   0.0000       2.350976        63.9733 
 645   0.0000       2.353190        64.0336 
 646   0.0000       2.366495        64.3956 
 647   0.0000       2.373651        64.5903 
 648   0.0000       2.379402        64.7468 
 649   0.0000       2.387528        64.9679 
 650   0.0000       2.399606        65.2966 
 651   0.0000       2.403571        65.4045 
 652   0.0000       2.419198        65.8297 
 653   0.0000       2.422308        65.9144 
 654   0.0000       2.428212        66.0750 
 655   0.0000       2.430790        66.1452 
 656   0.0000       2.437217        66.3200 
 657   0.0000       2.446248        66.5658 
 658   0.0000       2.457574        66.8740 
 659   0.0000       2.471707        67.2586 
 660   0.0000       2.481644        67.5290 
 661   0.0000       2.495444        67.9045 
 662   0.0000       2.503053        68.1115 
 663   0.0000       2.508342        68.2554 
 664   0.0000       2.521699        68.6189 
 665   0.0000       2.524875        68.7053 
 666   0.0000       2.528668        68.8086 
 667   0.0000       2.534838        68.9765 
 668   0.0000       2.542889        69.1955 
 669   0.0000       2.547809        69.3294 
 670   0.0000       2.554476        69.5108 
 671   0.0000       2.563958        69.7688 
 672   0.0000       2.575729        70.0892 
[...]
 124   8.650     143.3   0.089586   0.084040  -11.459392  -10.345122     0.22 (  70->  80)    0.13 (  70->  81)    0.13 (  71->  88)
 125   8.658     143.2   0.239911   0.222620  -34.349892  -32.708590     0.13 (  71->  88)    0.08 (  70->  80)    0.05 (  73->  86)
 126   8.677     142.9   0.110862   0.105276  38.842475  35.292396     0.09 (  71->  85)    0.07 (  71->  81)    0.05 (  74->  91)
 127   8.697     142.6   0.019901   0.017224  -22.733461  -21.977735     0.04 (  79->  85)    0.04 (  68->  82)    0.03 (  79->  88)
 128   8.713     142.3   0.038792   0.033468  -10.999260  -9.784211     0.12 (  71->  82)    0.12 (  71->  81)    0.06 (  71->  88)
 129   8.725     142.1   0.021979   0.020320  13.987410  16.000217     0.07 (  64->  85)    0.06 (  55->  80)    0.05 (  79->  88)
 130   8.733     142.0   0.035656   0.033251  -15.361017  -13.642719     0.07 (  64->  85)    0.06 (  73->  89)    0.06 (  65->  85)
 131   8.746     141.8   0.051456   0.043834  -8.918302  -8.893326     0.10 (  77-> 107)    0.05 (  78-> 111)    0.04 (  55->  80)
 132   8.761     141.5   0.004063   0.002984   4.970334   4.438834     0.08 (  53->  81)    0.04 (  72->  89)    0.04 (  64->  82)
 133   8.765     141.5   0.015140   0.013319  28.668823  26.118345     0.08 (  79->  88)    0.04 (  73->  86)    0.04 (  71->  88)
 134   8.775     141.3   0.054703   0.049109  18.820891  17.360521     0.14 (  79->  88)    0.11 (  79->  85)    0.03 (  79-> 113)
 135   8.799     140.9   0.001433   0.001534  -4.634166  -4.562724     0.07 (  77-> 108)    0.05 (  78-> 114)    0.04 (  77-> 105)
 136   8.800     140.9   0.031491   0.029433  -49.957582  -46.313173     0.05 (  77-> 107)    0.03 (  78-> 114)    0.03 (  79->  88)
 137   8.809     140.7   0.042487   0.038030  -44.005034  -40.131021     0.03 (  68->  82)    0.03 (  76-> 102)    0.03 (  71->  90)
 138   8.825     140.5   0.030742   0.028712  -73.302116  -70.072794     0.03 (  71->  90)    0.03 (  76-> 102)    0.02 (  76->  98)
 139   8.842     140.2   0.002169   0.002276   8.966770   9.599909     0.06 (  68->  82)    0.05 (  68->  80)    0.04 (  62->  84)
 140   8.851     140.1   0.001971   0.001788   1.445126   0.150772     0.07 (  73->  89)    0.07 (  72->  86)    0.04 (  74->  89)
 141   8.865     139.9   0.027908   0.025641  -22.354376  -21.880490     0.07 (  75->  87)    0.06 (  72->  89)    0.04 (  79->  88)
 142   8.885     139.5   0.007906   0.007414  -3.021687  -2.536024     0.09 (  74->  84)    0.07 (  75->  84)    0.05 (  75->  87)
 143   8.905     139.2   0.036247   0.033607  -25.617183  -24.910113     0.10 (  72->  87)    0.05 (  75->  93)    0.05 (  79->  88)
 144   8.920     139.0   0.015788   0.014494   2.105652   1.469487     0.50 (  78->  86)    0.03 (  67->  83)    0.03 (  72->  86)
 145   8.937     138.7   0.006065   0.005813   1.497541   2.192337     0.09 (  78->  86)    0.09 (  67->  83)    0.07 (  60->  83)
 146   8.945     138.6   0.008451   0.008029   9.021882   9.223892     0.03 (  72->  87)    0.02 (  66->  82)    0.02 (  68->  82)
 147   8.957     138.4   0.010800   0.009109  -10.384497  -10.006240     0.09 (  67->  81)    0.08 (  67->  80)    0.04 (  67->  83)
 148   8.970     138.2   0.024141   0.022041  40.472463  39.441892     0.09 (  71->  90)    0.09 (  77-> 108)    0.05 (  78-> 107)
 149   8.993     137.9   0.023554   0.023627  32.791353  30.168381     0.06 (  73->  93)    0.05 (  78->  86)    0.05 (  73->  86)
 150   9.006     137.7   0.010992   0.010519  35.321332  35.064466     0.13 (  67->  81)    0.08 (  67->  80)    0.06 (  59->  84)
 151   9.014     137.6   0.074078   0.070215  -14.193229  -14.092537     0.08 (  72->  86)    0.05 (  73->  86)    0.03 (  75->  84)
 152   9.019     137.5   0.000282   0.000515   1.157020   2.819043     0.05 (  78->  87)    0.04 (  74->  84)    0.02 (  59->  84)
 153   9.051     137.0   0.058450   0.048559  25.992899  23.175948     0.04 (  61->  84)    0.03 (  59->  84)    0.03 (  70->  89)
 154   9.077     136.6   0.007309   0.008136  -18.462875  -19.320688     0.07 (  72->  89)    0.02 (  63->  81)    0.02 (  79-> 113)
 155   9.090     136.4   0.010113   0.008375  -22.286463  -20.323421     0.05 (  77-> 107)    0.05 (  77-> 108)    0.04 (  72->  89)
 156   9.106     136.2   0.017827   0.016167  32.274133  32.785959     0.05 (  78-> 111)    0.05 (  76-> 110)    0.03 (  79->  88)
 157   9.119     136.0   0.057515   0.048169  -22.364334  -22.884951     0.14 (  76-> 110)    0.04 (  76-> 108)    0.03 (  70->  93)
 158   9.130     135.8   0.021887   0.017441  19.280215  17.608026     0.04 (  61->  83)    0.04 (  78->  87)    0.03 (  67->  83)
 159   9.141     135.6   0.005532   0.004666   9.421388   9.122808     0.68 (  78->  87)    0.02 (  74->  87)    0.01 (  70->  93)
 160   9.145     135.6   0.036988   0.031031   7.807635   7.868173     0.13 (  76-> 110)    0.11 (  68->  87)    0.06 (  76-> 109)
 161   9.175     135.1   0.011727   0.010812  22.576795  21.686240     0.06 (  78->  89)    0.05 (  64->  85)    0.04 (  64->  83)
 162   9.194     134.9   0.005311   0.004527  -13.552416  -10.415630     0.04 (  71->  90)    0.04 (  77-> 114)    0.04 (  77-> 110)
 163   9.202     134.7   0.010979   0.009215  -1.159418  -1.292295     0.13 (  78->  89)    0.05 (  68->  87)    0.02 (  78-> 111)
 164   9.205     134.7   0.002203   0.001402  11.459694   7.883315     0.06 (  77-> 111)    0.05 (  68->  87)    0.05 (  77-> 114)
 165   9.235     134.2   0.036182   0.030524  -46.409267  -43.199268     0.07 (  73->  83)    0.06 (  79->  91)    0.06 (  68->  86)
 166   9.243     134.1   0.019031   0.016117  -30.369947  -28.870304     0.06 (  79->  91)    0.04 (  68->  87)    0.03 (  73->  83)
 167   9.255     134.0   0.004616   0.004207  -14.225011  -13.881465     0.04 (  69->  85)    0.04 (  60->  85)    0.03 (  60->  83)
 168   9.261     133.9   0.018210   0.015633  16.282301  14.729976     0.08 (  68->  86)    0.05 (  60->  85)    0.04 (  77->  86)
 169   9.264     133.8   0.009534   0.007562  28.002008  24.744155     0.09 (  79->  91)    0.05 (  73->  83)    0.05 (  70->  93)
 170   9.272     133.7   0.048779   0.042809   9.155141   9.824979     0.21 (  77->  86)    0.03 (  73->  83)    0.02 (  74->  95)
 171   9.274     133.7   0.001394   0.001168  -1.503910   0.918078     0.06 (  79->  91)    0.05 (  79->  90)    0.03 (  77->  86)
 172   9.277     133.6   0.070375   0.059680  43.312817  38.296385     0.09 (  77->  86)    0.08 (  70->  93)    0.07 (  70->  95)
 173   9.285     133.5   0.059427   0.051188  -14.713496  -14.631173     0.33 (  77->  86)    0.03 (  73->  95)    0.03 (  74->  95)
 174   9.293     133.4   0.036813   0.031440  23.615551  21.886295     0.11 (  60->  85)    0.07 (  61->  85)    0.07 (  58->  83)
 175   9.308     133.2   0.005772   0.004305  -2.291240  -2.099755     0.09 (  68->  86)    0.04 (  76-> 109)    0.02 (  68->  87)
 176   9.321     133.0   0.010529   0.009336   4.743600   4.005570     0.09 (  76-> 109)    0.04 (  68->  87)    0.03 (  77-> 114)
 177   9.337     132.8   0.008524   0.007506  -17.318574  -17.774713     0.09 (  70->  86)    0.06 (  70->  89)    0.04 (  69->  81)
 178   9.339     132.8   0.008730   0.007499   3.070941   2.903364     0.04 (  75->  85)    0.04 (  73->  88)    0.04 (  68->  87)
 179   9.358     132.5   0.002734   0.002604  -12.195853  -11.057831     0.05 (  74->  97)    0.04 (  75->  97)    0.03 (  72->  99)
 180   9.360     132.5   0.007630   0.006470   0.537782   0.664425     0.04 (  72->  99)    0.04 (  75->  85)    0.03 (  73->  85)
 181   9.378     132.2   0.010032   0.009385  40.835468  39.718411     0.10 (  69->  81)    0.08 (  69->  88)    0.04 (  56->  83)
 182   9.379     132.2   0.021994   0.020667  -36.201885  -35.412698     0.06 (  50->  81)    0.04 (  56->  83)    0.04 (  68->  86)
 183   9.396     132.0   0.021506   0.019543   3.258155   3.582595     0.16 (  56->  83)    0.07 (  56->  84)    0.06 (  64->  88)
 184   9.411     131.7   0.010015   0.007675  -0.357742  -0.494889     0.08 (  69->  81)    0.03 (  69->  82)    0.03 (  71->  91)
 185   9.413     131.7   0.030347   0.024852  -5.556585  -9.724293     0.05 (  76->  85)    0.04 (  72->  99)    0.04 (  79->  92)
 186   9.418     131.6   0.001530   0.001226  -4.140011  -3.847488     0.64 (  76->  85)    0.08 (  76->  88)    0.05 (  76->  92)
 187   9.431     131.5   0.016592   0.015023  21.681803  26.488163     0.05 (  73->  99)    0.05 (  74->  99)    0.03 (  79->  99)
 188   9.446     131.3   0.088724   0.076432  51.270098  47.778241     0.05 (  77->  87)    0.04 (  62->  87)    0.03 (  66->  87)
 189   9.447     131.2   0.012851   0.010598  -20.938418  -18.832837     0.10 (  55->  83)    0.06 (  69->  88)    0.05 (  69->  85)
 190   9.453     131.2   0.017760   0.016037   7.749601   6.293318     0.07 (  77->  87)    0.06 (  50->  81)    0.05 (  70->  89)
 191   9.457     131.1   0.036128   0.032820  23.284436  22.631713     0.07 (  74->  94)    0.05 (  77-> 111)    0.04 (  75->  94)
 192   9.466     131.0   0.043992   0.036342  46.368010  42.539159     0.61 (  77->  87)    0.01 (  79-> 117)    0.01 (  62->  87)
 193   9.484     130.7   0.053683   0.043387  -42.713217  -36.967222     0.07 (  77->  87)    0.06 (  79->  90)    0.02 (  59->  84)
 194   9.492     130.6   0.075835   0.063082   2.019706  -1.827480     0.26 (  79->  90)    0.07 (  79->  91)    0.04 (  62->  87)
 195   9.508     130.4   0.040814   0.034139  28.289572  24.936104     0.08 (  79->  90)    0.04 (  74->  94)    0.04 (  77-> 111)
 196   9.528     130.1   0.004337   0.002875  -12.449963  -10.055471     0.10 (  79->  90)    0.04 (  79->  91)    0.03 (  77-> 111)
 197   9.539     130.0   0.001622   0.001510  24.169982  23.233366     0.04 (  68->  80)    0.03 (  68->  81)    0.03 (  57->  84)
 198   9.552     129.8   0.001592   0.001438  -0.307002  -1.273044     0.11 (  57->  84)    0.07 (  50->  81)    0.05 (  57->  83)
 199   9.557     129.7   0.008881   0.008177  -5.468805  -5.313003     0.09 (  68->  80)    0.06 (  68->  81)    0.06 (  68->  82)
 200   9.564     129.6   0.017336   0.014432  -12.230281  -12.603175     0.05 (  73->  87)    0.03 (  74-> 100)    0.03 (  79->  90)
 201   9.574     129.5   0.005873   0.004535  -28.523569  -26.458373     0.12 (  68->  80)    0.12 (  68->  81)    0.09 (  68->  82)
 202   9.586     129.3   0.001484   0.001134   3.026745   1.963046     0.09 (  57->  84)    0.06 (  50->  81)    0.06 (  60->  82)
 203   9.597     129.2   0.035966   0.030495   9.025772   7.669867     0.28 (  77->  89)    0.06 (  77->  90)    0.05 (  77->  91)
 204   9.605     129.1   0.001592   0.001570  -2.266598  -0.513394     0.47 (  76-> 112)    0.04 (  68->  87)    0.03 (  76-> 115)
 205   9.621     128.9   0.057860   0.047607  -60.467158  -58.229055     0.17 (  73->  93)    0.09 (  73->  87)    0.06 (  72->  87)
 206   9.645     128.5   0.007303   0.009045  -17.146340  -19.059062     0.05 (  71->  91)    0.04 (  77-> 115)    0.03 (  78-> 120)
 207   9.655     128.4   0.045496   0.037036  30.470626  29.356896     0.03 (  72-> 100)    0.03 (  73->  93)    0.03 (  72-> 101)
 208   9.667     128.2   0.014550   0.011334  -18.390702  -15.994940     0.03 (  78-> 115)    0.03 (  79-> 110)    0.03 (  74->  96)
 209   9.684     128.0   0.027467   0.022254  76.093803  66.614382     0.05 (  79-> 116)    0.03 (  76->  88)    0.03 (  79-> 117)
 210   9.695     127.9   0.008767   0.008575  18.420025  17.450991     0.05 (  74->  96)    0.05 (  71->  96)    0.04 (  75->  96)
 211   9.704     127.8   0.000951   0.000921   3.113327   3.037906     0.49 (  76->  88)    0.13 (  76->  85)    0.05 (  76->  92)
 212   9.710     127.7   0.001669   0.001448  -4.444927  -5.120242     0.05 (  76->  88)    0.04 (  69->  85)    0.03 (  51->  82)
 213   9.732     127.4   0.001252   0.001004   4.319095   4.090909     0.18 (  72->  83)    0.06 (  72->  84)    0.03 (  73->  95)
 214   9.739     127.3   0.012212   0.010071  -24.602572  -22.313901     0.03 (  69->  85)    0.03 (  72->  83)    0.03 (  76->  88)
 215   9.750     127.2   0.009320   0.008073  -13.867492  -13.455020     0.08 (  72->  83)    0.04 (  77->  89)    0.04 (  70->  89)
 216   9.754     127.1   0.002756   0.002052   1.652329   1.437873     0.08 (  73->  95)    0.04 (  72->  83)    0.03 (  70->  89)
 217   9.759     127.1   0.004650   0.003840  -7.256517  -7.288538     0.07 (  48->  81)    0.05 (  68->  89)    0.03 (  48->  80)
 218   9.772     126.9   0.007352   0.006635   4.552889   3.297338     0.05 (  70->  86)    0.04 (  48->  81)    0.03 (  73->  95)
 219   9.787     126.7   0.011417   0.011495  -17.814362  -18.566072     0.04 (  49->  80)    0.03 (  72->  83)    0.03 (  78-> 115)
 220   9.796     126.6   0.026797   0.024847  31.779073  31.473752     0.04 (  71->  91)    0.04 (  79-> 106)    0.03 (  78-> 120)
 221   9.800     126.5   0.012658   0.011557   5.631597   5.509096     0.03 (  49->  80)    0.03 (  49->  81)    0.03 (  79-> 106)
 222   9.811     126.4   0.016595   0.015369  -19.782452  -18.865052     0.08 (  78-> 114)    0.05 (  71->  91)    0.05 (  69->  88)
 223   9.823     126.2   0.039418   0.035441  -17.263509  -12.852159     0.06 (  72->  93)    0.05 (  73->  95)    0.04 (  69->  88)
 224   9.832     126.1   0.001148   0.000908  -2.644137  -2.783025     0.03 (  75->  88)    0.02 (  69->  88)    0.02 (  51->  82)
 225   9.833     126.1   0.015122   0.014776   0.150939   0.758119     0.03 (  68->  89)    0.03 (  75->  91)    0.02 (  78-> 120)
 226   9.849     125.9   0.007121   0.006437  -6.264122  -6.118437     0.04 (  68->  89)    0.03 (  78->  93)    0.02 (  70->  92)
 227   9.867     125.7   0.019355   0.017480  30.572641  28.654346     0.19 (  78->  93)    0.07 (  72->  93)    0.03 (  75-> 109)
 228   9.878     125.5   0.026231   0.022216  26.946763  25.307509     0.25 (  78->  93)    0.06 (  78-> 120)    0.03 (  72->  93)
 229   9.891     125.3   0.005587   0.004781   1.551073   2.006917     0.04 (  62->  84)    0.04 (  62->  86)    0.04 (  57->  86)
 230   9.896     125.3   0.006314   0.006316   5.092030   3.834186     0.06 (  51->  81)    0.04 (  78->  93)    0.04 (  50->  81)
 231   9.904     125.2   0.010203   0.008790  10.297759   9.730014     0.03 (  64->  82)    0.03 (  78->  93)    0.02 (  56->  82)
 232   9.914     125.1   0.005816   0.004400   0.537774   1.288497     0.05 (  48->  81)    0.04 (  76-> 113)    0.03 (  51->  81)
 233   9.918     125.0   0.017866   0.014698  -55.442730  -50.757361     0.05 (  79-> 121)    0.03 (  79-> 122)    0.03 (  79-> 123)
 234   9.936     124.8   0.035954   0.032481  51.669001  49.411676     0.03 (  78-> 125)    0.03 (  69->  85)    0.02 (  63->  85)
 235   9.943     124.7   0.001476   0.001447  -4.168670  -4.043201     0.16 (  74->  86)    0.11 (  75->  86)    0.11 (  71->  84)
 236   9.950     124.6   0.011860   0.010348  -2.267685  -3.059038     0.06 (  66->  80)    0.05 (  66->  81)    0.03 (  66->  82)
 237   9.954     124.6   0.016616   0.015285  28.840513  28.015499     0.05 (  66->  80)    0.04 (  66->  81)    0.03 (  47->  81)
 238   9.962     124.5   0.029284   0.025538  23.124845  22.047657     0.05 (  71->  84)    0.04 (  75->  86)    0.04 (  79->  94)
 239   9.967     124.4   0.008984   0.008438   4.306746   4.110592     0.11 (  74->  86)    0.09 (  71->  84)    0.04 (  75->  86)
 240   9.974     124.3   0.004751   0.003814   7.519786   7.512104     0.13 (  79->  94)    0.05 (  76-> 113)    0.05 (  79-> 121)
 241   9.989     124.1   0.003145   0.002975  -13.659483  -13.576843     0.03 (  76-> 115)    0.03 (  76-> 116)    0.03 (  66->  80)
 242   9.994     124.1   0.002830   0.002620   6.613854   4.544748     0.05 (  71->  84)    0.05 (  53->  84)    0.04 (  79->  94)

sTD-DFT done

Total run time:       44.531 sec

           *** ORCA-CIS/TD-DFT FINISHED WITHOUT ERROR ***


-------------------------------------------------------------------------------
                          DFT DISPERSION CORRECTION                            
                                                                               
                              DFTD3 V3.1  Rev 1                                
                              USING zero damping                               
-------------------------------------------------------------------------------
The omegaB97X-D3 functional is recognized. Fit by Chai et al.
Active option DFTDOPT                   ...         3   

molecular C6(AA) [au] = 42506.215051 


            DFT-D V3
 parameters
 s6 scaling factor         :     1.0000 
 rs6 scaling factor        :     1.2810 
 s8 scaling factor         :     1.0000 
 rs8 scaling factor        :     1.0940 
 Damping factor alpha6     :    14.0000 
 Damping factor alpha8     :    16.0000 
 ad hoc parameters k1-k3   :    16.0000     1.3333    -4.0000 

 Edisp/kcal,au: -14.743198950659  -0.023494780537 
 E6   /kcal   :  -6.834962674 
 E8   /kcal   :  -7.908236277 
 % E8         :  53.639893915 

-------------------------   ----------------
Dispersion correction           -0.023494781
-------------------------   ----------------


-------------------------   --------------------
FINAL SINGLE POINT ENERGY     -2187.142848677525
-------------------------   --------------------


                            ***************************************
                            *     ORCA property calculations      *
                            ***************************************

                                    ---------------------
                                    Active property flags
                                    ---------------------
   (+) Dipole Moment
   (+) Quadrupole Moment


------------------------------------------------------------------------------
                       ORCA ELECTRIC PROPERTIES CALCULATION
------------------------------------------------------------------------------

Dipole Moment Calculation                       ... on
Quadrupole Moment Calculation                   ... on
Polarizability Calculation                      ... off
GBWName                                         ... total_job2.gbw
Electron density file                           ... total_job2.scfp.tmp

-------------
DIPOLE MOMENT
-------------
                                X             Y             Z
Electronic contribution:     18.69360       0.96495       5.26079
Nuclear contribution   :    -19.92394      -2.21887      -7.09013
                        -----------------------------------------
Total Dipole Moment    :     -1.23034      -1.25392      -1.82934
                        -----------------------------------------
Magnitude (a.u.)       :      2.53625
Magnitude (Debye)      :      6.44662


------------------------
QUADRUPOLE MOMENT (A.U.)
------------------------

                XX           YY           ZZ           XY           XZ           YZ
  NUC     24984.82588   2831.35618   1276.04561     93.46756    807.90965   1646.55578
  EL     -25098.57278  -2978.36580  -1439.99884    -84.68447   -799.60687  -1637.70286
  TOT      -113.74690   -147.00962   -163.95323      8.78309      8.30279      8.85292

--------------------------------------------------------------------------
[[21965,1],3]: A high-performance Open MPI point-to-point messaging module
was unable to find any relevant network interfaces:

Module: OpenFabrics (openib)
  Host: cx1-108-10-4

Another transport will be used instead, although this may result in
lower performance.
--------------------------------------------------------------------------

Timings for individual modules:

Sum of individual times         ...      230.263 sec (=   3.838 min)
GTO integral calculation        ...        6.662 sec (=   0.111 min)   2.9 %
SCF iterations                  ...      175.408 sec (=   2.923 min)  76.2 %
CIS module                      ...       48.192 sec (=   0.803 min)  20.9 %



                             ****ORCA TERMINATED NORMALLY****
TOTAL RUN TIME: 0 days 0 hours 13 minutes 29 seconds 355 msec
