
                                 *****************
                                 * O   R   C   A *
                                 *****************

           --- An Ab Initio, DFT and Semiempirical electronic structure package ---

                  #######################################################
                  #                        -***-                        #
                  #  Department of molecular theory and spectroscopy    #
                  #              Directorship: Frank Neese              #
                  # Max Planck Institute for Chemical Energy Conversion #
                  #                  D-45470 Muelheim/Ruhr              #
                  #                       Germany                       #
                  #                                                     #
                  #                  All rights reserved                #
                  #                        -***-                        #
                  #######################################################


                         Program Version 4.0.0 -  RELEASE  -


 With contributions from (in alphabetic order):
   Daniel Aravena         : Magnetic Properties
   Michael Atanasov       : Ab Initio Ligand Field Theory
   Ute Becker             : Parallelization
   Martin Brehm           : Molecular dynamics
   Dmytro Bykov           : SCF Hessian
   Vijay G. Chilkuri      : MRCI spin determinant printing
   Dipayan Datta          : RHF DLPNO-CCSD density
   Achintya Kumar Dutta   : EOM-CC, STEOM-CC
   Dmitry Ganyushin       : Spin-Orbit,Spin-Spin,Magnetic field MRCI
   Yang Guo               : DLPNO-NEVPT2, CIM, IAO-localization
   Andreas Hansen         : Spin unrestricted coupled pair/coupled cluster methods
   Lee Huntington         : MR-EOM, pCC
   Robert Izsak           : Overlap fitted RIJCOSX, COSX-SCS-MP3, EOM
   Christian Kollmar      : KDIIS, OOCD, Brueckner-CCSD(T), CCSD density
   Simone Kossmann        : Meta GGA functionals, TD-DFT gradient, OOMP2, MP2 Hessian
   Martin Krupicka        : AUTO-CI
   Dagmar Lenk            : GEPOL surface
   Dimitrios Liakos       : Extrapolation schemes; parallel MDCI
   Dimitrios Manganas     : ROCIS; embedding schemes
   Dimitrios Pantazis     : SARC Basis sets
   Taras Petrenko         : DFT Hessian,TD-DFT gradient, ASA, ECA, R-Raman, ABS, FL, XAS/XES, NRVS
   Peter Pinski           : DLPNO-MP2
   Christoph Reimann      : Effective Core Potentials
   Marius Retegan         : Local ZFS, SOC
   Christoph Riplinger    : Optimizer, TS searches, QM/MM, DLPNO-CCSD(T), (RO)-DLPNO pert. Triples
   Tobias Risthaus        : Range-separated hybrids, TD-DFT gradient, RPA, STAB
   Michael Roemelt        : Restricted open shell CIS
   Masaaki Saitow         : Open-shell DLPNO
   Barbara Sandhoefer     : DKH picture change effects
   Kantharuban Sivalingam : CASSCF convergence, NEVPT2, FIC-MRCI
   Georgi Stoychev        : AutoAux
   Boris Wezisla          : Elementary symmetry handling
   Frank Wennmohs         : Technical directorship


 We gratefully acknowledge several colleagues who have allowed us to
 interface, adapt or use parts of their codes:
   Stefan Grimme, W. Hujo, H. Kruse,             : VdW corrections, initial TS optimization,
                  C. Bannwarth                     DFT functionals, gCP, sTDA/sTD-DF
   Ed Valeev                                     : LibInt (2-el integral package), F12 methods
   Garnet Chan, S. Sharma, J. Yang, R. Olivares  : DMRG
   Ulf Ekstrom                                   : XCFun DFT Library
   Mihaly Kallay                                 : mrcc  (arbitrary order and MRCC methods)
   Jiri Pittner, Ondrej Demel                    : Mk-CCSD
   Frank Weinhold                                : gennbo (NPA and NBO analysis)
   Christopher J. Cramer and Donald G. Truhlar   : smd solvation model


 Your calculation uses the libint2 library for the computation of 2-el integrals
 For citations please refer to: http://libint.valeyev.net

 This ORCA versions uses:
   CBLAS   interface :  Fast vector & matrix operations
   LAPACKE interface :  Fast linear algebra routines
   SCALAPACK package :  Parallel linear algebra routines


Your calculation utilizes the atom-pairwise dispersion correction
with the zero-damping scheme (D30)
Cite in your paper:
S.Grimme, J.Antony, S.Ehrlich and H.Krieg, J.Chem.Phys., 132, (2010), 154104 
   

XCFun DFT library Copyright 2009-2010 Ulf Ekstrom and contributors.
See http://admol.org/xcfun for more information. This is free soft-
ware; see the source code for copying conditions. There is ABSOLUTELY
NO WARRANTY; not even for MERCHANTABILITY or FITNESS FOR A PARTICULAR
PURPOSE. For details see the documentation. Scientific users of this 
library should cite U. Ekstrom, L. Visscher, R. Bast, A. J. Thorvald-
sen and K. Ruud; J.Chem.Theor.Comp. 2010, DOI: 10.1021/ct100117s
XCFun Version 0.99 
Your calculation utilizes the basis: def2-TZVP
   F. Weigend and R. Ahlrichs, Phys. Chem. Chem. Phys. 7, 3297 (2005).

Your calculation utilizes the auxiliary basis: def2/J
   F. Weigend, Phys. Chem. Chem. Phys. 8, 1057 (2006).

================================================================================
                                        WARNINGS
                       Please study these warnings very carefully!
================================================================================

Warning: TCutStore was < 0. Adjusted to Thresh (uncritical)
INFO   : Checking CIS options ...

WARNING: CIS/ROCIS methods need fully converged wavefunctions
  ===> : Setting SCFConvForced true
         You can overwrite this default with %scf ConvForced false 


INFO   : the flag for use of LIBINT has been found!

Your calculation utilizes the atom-pairwise dispersion correction
with the zero-damping scheme (D30)
Cite in your paper:
S.Grimme, J.Antony, S.Ehrlich and H.Krieg, J.Chem.Phys., 132, (2010), 154104 
   

XCFun DFT library Copyright 2009-2010 Ulf Ekstrom and contributors.
See http://admol.org/xcfun for more information. This is free soft-
ware; see the source code for copying conditions. There is ABSOLUTELY
NO WARRANTY; not even for MERCHANTABILITY or FITNESS FOR A PARTICULAR
PURPOSE. For details see the documentation. Scientific users of this 
library should cite U. Ekstrom, L. Visscher, R. Bast, A. J. Thorvald-
sen and K. Ruud; J.Chem.Theor.Comp. 2010, DOI: 10.1021/ct100117s
XCFun Version 0.99 
Your calculation utilizes the basis: def2-TZVP
   F. Weigend and R. Ahlrichs, Phys. Chem. Chem. Phys. 7, 3297 (2005).

Your calculation utilizes the auxiliary basis: def2/J
   F. Weigend, Phys. Chem. Chem. Phys. 8, 1057 (2006).

================================================================================
                                        WARNINGS
                       Please study these warnings very carefully!
================================================================================

INFO   : Checking CIS options ...

INFO   : the flag for use of LIBINT has been found!

================================================================================
                                       INPUT FILE
================================================================================
NAME = total.inp
|  1> # 
|  2> !wB97X-D3 def2-TZVP def2/J RIJCOSX Grid5 FinalGrid6 TightSCF
|  3> %pal 
|  4>  nprocs 24
|  5> end
|  6> %tddft
|  7>   Mode sTDDFT
|  8>   nroots 2
|  9>   Ethresh 10.0
| 10>   maxcore 5000
| 11>   triplets true
| 12> end
| 13> * xyz 0 1 
| 14> C -7.69600522 -2.71399887 -0.81855050
| 15> C -6.91704704 -1.60766359 -0.48954203
| 16> C -7.52483066 -0.33991221 -0.41088790
| 17> C -8.91575694 -0.23852906 -0.69553058
| 18> C -9.70405437 -1.35271253 -1.02162541
| 19> C -9.07297514 -2.59266846 -1.07518144
| 20> C -7.06049241 1.01101341 -0.13379540
| 21> C -8.19665416 1.85857760 -0.29342185
| 22> N -9.29953808 1.08834436 -0.61015106
| 23> C -8.13639445 3.25369961 -0.15900494
| 24> C -6.89569979 3.81650158 0.13122099
| 25> C -5.76249917 3.01041770 0.30130659
| 26> C -5.81377418 1.60779327 0.19532276
| 27> H -4.81463341 3.48012465 0.54987482
| 28> H -10.23085600 1.44414472 -0.78759548
| 29> H -6.80285900 4.89361892 0.23599006
| 30> H -5.85558493 -1.73450235 -0.30381143
| 31> H -10.76533285 -1.24844735 -1.23057699
| 32> H -9.65058505 -3.47846227 -1.32539301
| 33> H -7.23095398 -3.69397039 -0.87901124
| 34> C 1.12166529 -0.00959981 0.85235968
| 35> N 0.76025498 -1.22066848 1.30549891
| 36> O -0.59897822 -1.25071225 1.30256330
| 37> C -1.08693187 -0.08304818 0.85690001
| 38> C -0.03868086 0.76195289 0.54888967
| 39> C -2.53120752 0.08725225 0.77673521
| 40> N -3.38590915 -0.88160707 1.13679528
| 41> O -4.63603554 -0.38949979 0.93261901
| 42> C -4.57759717 0.86071093 0.45048033
| 43> C -3.25061193 1.23483555 0.33547072
| 44> H -2.85248277 2.17051671 -0.02901942
| 45> H -0.09047252 1.77178584 0.16726285
| 46> C 3.63346411 -0.37891013 1.01873134
| 47> C 2.51918278 0.37748770 0.72059076
| 48> S 2.98757155 1.96328227 0.12560920
| 49> C 4.68417418 1.57436177 0.29087812
| 50> C 4.87009773 0.30054378 0.77645022
| 51> C 6.22243593 -0.31926716 1.01753595
| 52> C 6.46691437 -1.54476426 0.12236740
| 53> C 7.84603683 -2.19353585 0.33707145
| 54> C 8.92398224 -1.73372181 -0.65126417
| 55> C 9.25017927 -0.23947701 -0.57723215
| 56> C 10.41035436 0.14170116 -1.48645110
| 57> H 3.56992965 -1.39139140 1.40233996
| 58> H 11.31448083 -0.39763643 -1.21175733
| 59> H 10.18498359 -0.09529849 -2.52408614
| 60> H 10.62090110 1.20693408 -1.42255468
| 61> H 6.30553731 -0.62751215 2.06738797
| 62> H 7.00149479 0.42996810 0.85260085
| 63> H 5.68357964 -2.28088294 0.32852105
| 64> H 6.34797028 -1.25943242 -0.92696477
| 65> H 7.74534506 -3.27968256 0.24245937
| 66> H 8.18532245 -2.00787953 1.36143375
| 67> H 8.36670517 0.34247048 -0.85608400
| 68> H 9.48893315 0.03265544 0.45605003
| 69> H 8.60986646 -1.98147429 -1.67069568
| 70> H 9.83759688 -2.30837022 -0.46436774
| 71> H -9.02179025 3.87003388 -0.28643475
| 72> H 5.45816464 2.28441066 0.02847358
| 73> *
| 74> $new_job
| 75> # 
| 76> !wB97X-D3 def2-TZVP def2/J RIJCOSX Grid5 FinalGrid6 TightSCF
| 77> %pal 
| 78>  nprocs 24
| 79> end
| 80> %elprop
| 81>    dipole     true
| 82>    quadrupole true
| 83> end
| 84> %tddft
| 85>   Mode sTDDFT
| 86>   nroots 2
| 87>   Ethresh 10.0
| 88>   maxcore 5000
| 89> end
| 90> * xyz 0 1 
| 91> C -7.69600522 -2.71399887 -0.81855050
| 92> C -6.91704704 -1.60766359 -0.48954203
| 93> C -7.52483066 -0.33991221 -0.41088790
| 94> C -8.91575694 -0.23852906 -0.69553058
| 95> C -9.70405437 -1.35271253 -1.02162541
| 96> C -9.07297514 -2.59266846 -1.07518144
| 97> C -7.06049241 1.01101341 -0.13379540
| 98> C -8.19665416 1.85857760 -0.29342185
| 99> N -9.29953808 1.08834436 -0.61015106
|100> C -8.13639445 3.25369961 -0.15900494
|101> C -6.89569979 3.81650158 0.13122099
|102> C -5.76249917 3.01041770 0.30130659
|103> C -5.81377418 1.60779327 0.19532276
|104> H -4.81463341 3.48012465 0.54987482
|105> H -10.23085600 1.44414472 -0.78759548
|106> H -6.80285900 4.89361892 0.23599006
|107> H -5.85558493 -1.73450235 -0.30381143
|108> H -10.76533285 -1.24844735 -1.23057699
|109> H -9.65058505 -3.47846227 -1.32539301
|110> H -7.23095398 -3.69397039 -0.87901124
|111> C 1.12166529 -0.00959981 0.85235968
|112> N 0.76025498 -1.22066848 1.30549891
|113> O -0.59897822 -1.25071225 1.30256330
|114> C -1.08693187 -0.08304818 0.85690001
|115> C -0.03868086 0.76195289 0.54888967
|116> C -2.53120752 0.08725225 0.77673521
|117> N -3.38590915 -0.88160707 1.13679528
|118> O -4.63603554 -0.38949979 0.93261901
|119> C -4.57759717 0.86071093 0.45048033
|120> C -3.25061193 1.23483555 0.33547072
|121> H -2.85248277 2.17051671 -0.02901942
|122> H -0.09047252 1.77178584 0.16726285
|123> C 3.63346411 -0.37891013 1.01873134
|124> C 2.51918278 0.37748770 0.72059076
|125> S 2.98757155 1.96328227 0.12560920
|126> C 4.68417418 1.57436177 0.29087812
|127> C 4.87009773 0.30054378 0.77645022
|128> C 6.22243593 -0.31926716 1.01753595
|129> C 6.46691437 -1.54476426 0.12236740
|130> C 7.84603683 -2.19353585 0.33707145
|131> C 8.92398224 -1.73372181 -0.65126417
|132> C 9.25017927 -0.23947701 -0.57723215
|133> C 10.41035436 0.14170116 -1.48645110
|134> H 3.56992965 -1.39139140 1.40233996
|135> H 11.31448083 -0.39763643 -1.21175733
|136> H 10.18498359 -0.09529849 -2.52408614
|137> H 10.62090110 1.20693408 -1.42255468
|138> H 6.30553731 -0.62751215 2.06738797
|139> H 7.00149479 0.42996810 0.85260085
|140> H 5.68357964 -2.28088294 0.32852105
|141> H 6.34797028 -1.25943242 -0.92696477
|142> H 7.74534506 -3.27968256 0.24245937
|143> H 8.18532245 -2.00787953 1.36143375
|144> H 8.36670517 0.34247048 -0.85608400
|145> H 9.48893315 0.03265544 0.45605003
|146> H 8.60986646 -1.98147429 -1.67069568
|147> H 9.83759688 -2.30837022 -0.46436774
|148> H -9.02179025 3.87003388 -0.28643475
|149> H 5.45816464 2.28441066 0.02847358
|150> *
|151> 
|152>                          ****END OF INPUT****
================================================================================


                 $$$$$$$$$$$$$$$$$$$$$$$$$$$$$$$$$$$$$$$$$$$$$$ 
                 $ THERE ARE  2 JOBS TO BE PROCESSED THIS RUN $
                 $$$$$$$$$$$$$$$$$$$$$$$$$$$$$$$$$$$$$$$$$$$$$$ 




                 $$$$$$$$$$$$$$$$  JOB NUMBER  1 $$$$$$$$$$$$$$


                       ****************************
                       * Single Point Calculation *
                       ****************************

---------------------------------
CARTESIAN COORDINATES (ANGSTROEM)
---------------------------------
  C     -7.696005   -2.713999   -0.818550
  C     -6.917047   -1.607664   -0.489542
  C     -7.524831   -0.339912   -0.410888
  C     -8.915757   -0.238529   -0.695531
  C     -9.704054   -1.352713   -1.021625
  C     -9.072975   -2.592668   -1.075181
  C     -7.060492    1.011013   -0.133795
  C     -8.196654    1.858578   -0.293422
  N     -9.299538    1.088344   -0.610151
  C     -8.136394    3.253700   -0.159005
  C     -6.895700    3.816502    0.131221
  C     -5.762499    3.010418    0.301307
  C     -5.813774    1.607793    0.195323
  H     -4.814633    3.480125    0.549875
  H    -10.230856    1.444145   -0.787595
  H     -6.802859    4.893619    0.235990
  H     -5.855585   -1.734502   -0.303811
  H    -10.765333   -1.248447   -1.230577
  H     -9.650585   -3.478462   -1.325393
  H     -7.230954   -3.693970   -0.879011
  C      1.121665   -0.009600    0.852360
  N      0.760255   -1.220668    1.305499
  O     -0.598978   -1.250712    1.302563
  C     -1.086932   -0.083048    0.856900
  C     -0.038681    0.761953    0.548890
  C     -2.531208    0.087252    0.776735
  N     -3.385909   -0.881607    1.136795
  O     -4.636036   -0.389500    0.932619
  C     -4.577597    0.860711    0.450480
  C     -3.250612    1.234836    0.335471
  H     -2.852483    2.170517   -0.029019
  H     -0.090473    1.771786    0.167263
  C      3.633464   -0.378910    1.018731
  C      2.519183    0.377488    0.720591
  S      2.987572    1.963282    0.125609
  C      4.684174    1.574362    0.290878
  C      4.870098    0.300544    0.776450
  C      6.222436   -0.319267    1.017536
  C      6.466914   -1.544764    0.122367
  C      7.846037   -2.193536    0.337071
  C      8.923982   -1.733722   -0.651264
  C      9.250179   -0.239477   -0.577232
  C     10.410354    0.141701   -1.486451
  H      3.569930   -1.391391    1.402340
  H     11.314481   -0.397636   -1.211757
  H     10.184984   -0.095298   -2.524086
  H     10.620901    1.206934   -1.422555
  H      6.305537   -0.627512    2.067388
  H      7.001495    0.429968    0.852601
  H      5.683580   -2.280883    0.328521
  H      6.347970   -1.259432   -0.926965
  H      7.745345   -3.279683    0.242459
  H      8.185322   -2.007880    1.361434
  H      8.366705    0.342470   -0.856084
  H      9.488933    0.032655    0.456050
  H      8.609866   -1.981474   -1.670696
  H      9.837597   -2.308370   -0.464368
  H     -9.021790    3.870034   -0.286435
  H      5.458165    2.284411    0.028474

----------------------------
CARTESIAN COORDINATES (A.U.)
----------------------------
  NO LB      ZA    FRAG     MASS         X           Y           Z
   0 C     6.0000    0    12.011  -14.543342   -5.128715   -1.546836
   1 C     6.0000    0    12.011  -13.071325   -3.038044   -0.925100
   2 C     6.0000    0    12.011  -14.219869   -0.642341   -0.776466
   3 C     6.0000    0    12.011  -16.848339   -0.450755   -1.314362
   4 C     6.0000    0    12.011  -18.338005   -2.556256   -1.930592
   5 C     6.0000    0    12.011  -17.145438   -4.899433   -2.031798
   6 C     6.0000    0    12.011  -13.342397    1.910538   -0.252837
   7 C     6.0000    0    12.011  -15.489432    3.512203   -0.554487
   8 N     7.0000    0    14.007  -17.573580    2.056673   -1.153018
   9 C     6.0000    0    12.011  -15.375557    6.148601   -0.300476
  10 C     6.0000    0    12.011  -13.030984    7.212143    0.247972
  11 C     6.0000    0    12.011  -10.889545    5.688865    0.569387
  12 C     6.0000    0    12.011  -10.986441    3.038289    0.369107
  13 H     1.0000    0     1.008   -9.098339    6.576483    1.039113
  14 H     1.0000    0     1.008  -19.333516    2.729038   -1.488340
  15 H     1.0000    0     1.008  -12.855540    9.247600    0.445957
  16 H     1.0000    0     1.008  -11.065452   -3.277734   -0.574120
  17 H     1.0000    0     1.008  -20.343531   -2.359224   -2.325453
  18 H     1.0000    0     1.008  -18.236963   -6.573341   -2.504630
  19 H     1.0000    0     1.008  -13.664523   -6.980592   -1.661091
  20 C     6.0000    0    12.011    2.119640   -0.018141    1.610726
  21 N     7.0000    0    14.007    1.436674   -2.306729    2.467035
  22 O     8.0000    0    15.999   -1.131905   -2.363504    2.461488
  23 C     6.0000    0    12.011   -2.054004   -0.156938    1.619306
  24 C     6.0000    0    12.011   -0.073096    1.439882    1.037251
  25 C     6.0000    0    12.011   -4.783289    0.164883    1.467817
  26 N     7.0000    0    14.007   -6.398441   -1.665996    2.148232
  27 O     8.0000    0    15.999   -8.760838   -0.736048    1.762395
  28 C     6.0000    0    12.011   -8.650405    1.626508    0.851284
  29 C     6.0000    0    12.011   -6.142766    2.333501    0.633948
  30 H     1.0000    0     1.008   -5.390411    4.101682   -0.054839
  31 H     1.0000    0     1.008   -0.170968    3.348190    0.316081
  32 C     6.0000    0    12.011    6.866252   -0.716036    1.925123
  33 C     6.0000    0    12.011    4.760566    0.713348    1.361719
  34 S    16.0000    0    32.060    5.645692    3.710066    0.237367
  35 C     6.0000    0    12.011    8.851806    2.975113    0.549680
  36 C     6.0000    0    12.011    9.203151    0.567945    1.467278
  37 C     6.0000    0    12.011   11.758700   -0.603327    1.922864
  38 C     6.0000    0    12.011   12.220697   -2.919181    0.231241
  39 C     6.0000    0    12.011   14.826861   -4.145182    0.636973
  40 C     6.0000    0    12.011   16.863882   -3.276259   -1.230711
  41 C     6.0000    0    12.011   17.480306   -0.452546   -1.090811
  42 C     6.0000    0    12.011   19.672719    0.267776   -2.808985
  43 H     1.0000    0     1.008    6.746189   -2.629349    2.650038
  44 H     1.0000    0     1.008   21.381270   -0.751424   -2.289889
  45 H     1.0000    0     1.008   19.246830   -0.180088   -4.769832
  46 H     1.0000    0     1.008   20.070594    2.280775   -2.688239
  47 H     1.0000    0     1.008   11.915739   -1.185826    3.906797
  48 H     1.0000    0     1.008   13.230908    0.812522    1.611182
  49 H     1.0000    0     1.008   10.740409   -4.310244    0.620815
  50 H     1.0000    0     1.008   11.995925   -2.379982   -1.751710
  51 H     1.0000    0     1.008   14.636581   -6.197702    0.458182
  52 H     1.0000    0     1.008   15.468018   -3.794342    2.572737
  53 H     1.0000    0     1.008   15.810781    0.647175   -1.617764
  54 H     1.0000    0     1.008   17.931485    0.061710    0.861810
  55 H     1.0000    0     1.008   16.270290   -3.744444   -3.157157
  56 H     1.0000    0     1.008   18.590364   -4.362188   -0.877528
  57 H     1.0000    0     1.008  -17.048713    7.313304   -0.541283
  58 H     1.0000    0     1.008   10.314436    4.316911    0.053807

--------------------------------
INTERNAL COORDINATES (ANGSTROEM)
--------------------------------
 C      0   0   0     0.000000000000     0.00000000     0.00000000
 C      1   0   0     1.392479863874     0.00000000     0.00000000
 C      2   1   0     1.408112553171   119.14706082     0.00000000
 C      3   2   1     1.423367807271   118.34304439   358.93556478
 C      4   3   2     1.403266005118   122.60692959     1.38696414
 C      5   4   3     1.392343330946   117.47842069   359.33564357
 C      3   2   1     1.455125525424   135.13330917   181.50668445
 C      7   3   2     1.426432326426   106.03096247   176.51868435
 N      8   7   3     1.382002017894   109.27650671     1.57333518
 C      8   7   3     1.402877243785   123.09058054   182.53586265
 C     10   8   7     1.392946656277   117.38880258     0.64468192
 C     11  10   8     1.401015338278   120.88144008   359.01503635
 C     12  11  10     1.407557100264   122.32592323   359.75181332
 H     12  11  10     1.086673954240   118.98622519   181.41375261
 H      9   8   7     1.012636897648   125.32989811   180.82126222
 H     11  10   8     1.086175738288   119.79491404   179.52467676
 H      2   1   3     1.085027989400   119.65796376   180.31705006
 H      5   4   3     1.086666463390   121.14029827   179.73468245
 H      6   5   4     1.086678292654   119.59475233   180.06059186
 H      1   2   3     1.086403395115   119.36422915   180.07546159
 C     14  12  11     6.892700207674   122.84912195   186.33723061
 N     21  14  12     1.342624257711   103.86671055   326.16481706
 O     22  21  14     1.359568364557   106.75738488     8.65621560
 C     23  22  21     1.341698145251   110.18665129     0.00000000
 C     24  23  22     1.381205038296   109.29843586     0.00000000
 C     24  23  22     1.456489198312   118.72948531   179.96853078
 N     26  24  23     1.341210838118   122.18653288     0.19773984
 O     27  26  24     1.358923660562   106.51768437   180.14250103
 C     28  27  26     1.341230626791   110.57805739     0.18385433
 C     29  28  27     1.383505066438   108.88926577   359.40952633
 H     30  29  28     1.080212536207   128.00969611   179.27368229
 H     25  24  23     1.080779345054   127.87922893   179.99785727
 C     21  14  12     2.544248996042   157.91396273   169.64095482
 C     33  21  14     1.379365203656    26.96917711   337.03141067
 S     34  33  21     1.757309168827   110.65326182   179.98627847
 C     35  34  33     1.748437432498    91.48432668     0.00000000
 C     36  35  34     1.375848866115   111.74216956   359.93131455
 C     37  36  35     1.507019090036   123.95250624   179.64541013
 C     38  37  36     1.537185604487   112.17563384   243.45574057
 C     39  38  37     1.539149493959   113.41059981   179.51340105
 C     40  39  38     1.533037036761   114.43612516   264.24485548
 C     41  40  39     1.531225902567   114.28739591    62.44709125
 C     42  41  40     1.522492080695   112.19616282   174.83692461
 H     33  21  14     1.084578500177    95.78532914   156.98313750
 H     43  42  41     1.088019474558   110.99880084   299.82233979
 H     43  42  41     1.087955557137   110.92690769    59.59040844
 H     43  42  41     1.087719566830   110.95351752   179.67047921
 H     38  37  36     1.097319496371   109.66654956   122.52727268
 H     38  37  36     1.093384547807   109.47685933     6.10370691
 H     39  38  37     1.094524251754   108.22011793   301.03617846
 H     39  38  37     1.093919539299   109.47329603    56.32211551
 H     40  39  38     1.094899517705   108.88602373   143.49767096
 H     40  39  38     1.094943433587   109.67480207    27.78613959
 H     42  41  40     1.094051059474   109.55570500   296.37895547
 H     42  41  40     1.094865995939   109.55027101    52.89468025
 H     41  40  39     1.095121280120   109.30480421   299.89584466
 H     41  40  39     1.095373352371   108.60961758   184.40860823
 H     10   8   7     1.086292783512   121.19733546   180.04978735
 H     36  35  34     1.082629576990   121.66314262   179.88225040

---------------------------
INTERNAL COORDINATES (A.U.)
---------------------------
 C      0   0   0     0.000000000000     0.00000000     0.00000000
 C      1   0   0     2.631405589721     0.00000000     0.00000000
 C      2   1   0     2.660947091230   119.14706082     0.00000000
 C      3   2   1     2.689775343583   118.34304439   358.93556478
 C      4   3   2     2.651788442714   122.60692959     1.38696414
 C      5   4   3     2.631147579879   117.47842069   359.33564357
 C      3   2   1     2.749788733530   135.13330917   181.50668445
 C      7   3   2     2.695566445517   106.03096247   176.51868435
 N      8   7   3     2.611605330346   109.27650671     1.57333518
 C      8   7   3     2.651053790264   123.09058054   182.53586265
 C     10   8   7     2.632287699525   117.38880258     0.64468192
 C     11  10   8     2.647535298769   120.88144008   359.01503635
 C     12  11  10     2.659897437356   122.32592323   359.75181332
 H     12  11  10     2.053516170379   118.98622519   181.41375261
 H      9   8   7     1.913606409659   125.32989811   180.82126222
 H     11  10   8     2.052574678674   119.79491404   179.52467676
 H      2   1   3     2.050405747604   119.65796376   180.31705006
 H      5   4   3     2.053502014723   121.14029827   179.73468245
 H      6   5   4     2.053524368794   119.59475233   180.06059186
 H      1   2   3     2.053004887730   119.36422915   180.07546159
 C     14  12  11    13.025315715727   122.84912195   186.33723061
 N     21  14  12     2.537192147834   103.86671055   326.16481706
 O     22  21  14     2.569211869356   106.75738488     8.65621560
 C     23  22  21     2.535442048915   110.18665129     0.00000000
 C     24  23  22     2.610099257172   109.29843586     0.00000000
 C     24  23  22     2.752365701825   118.72948531   179.96853078
 N     26  24  23     2.534521171889   122.18653288     0.19773984
 O     27  26  24     2.567993555367   106.51768437   180.14250103
 C     28  27  26     2.534558567063   110.57805739     0.18385433
 C     29  28  27     2.614445680461   108.88926577   359.40952633
 H     30  29  28     2.041305859859   128.00969611   179.27368229
 H     25  24  23     2.042376973350   127.87922893   179.99785727
 C     21  14  12     4.807933819024   157.91396273   169.64095482
 C     33  21  14     2.606622473571    26.96917711   337.03141067
 S     34  33  21     3.320833061712   110.65326182   179.98627847
 C     35  34  33     3.304067909718    91.48432668     0.00000000
 C     36  35  34     2.599977558624   111.74216956   359.93131455
 C     37  36  35     2.847853358759   123.95250624   179.64541013
 C     38  37  36     2.904859809487   112.17563384   243.45574057
 C     39  38  37     2.908571022746   113.41059981   179.51340105
 C     40  39  38     2.897020152637   114.43612516   264.24485548
 C     41  40  39     2.893597605019   114.28739591    62.44709125
 C     42  41  40     2.877093073578   112.19616282   174.83692461
 H     33  21  14     2.049556336074    95.78532914   156.98313750
 H     43  42  41     2.056058835288   110.99880084   299.82233979
 H     43  42  41     2.055938048868   110.92690769    59.59040844
 H     43  42  41     2.055492091816   110.95351752   179.67047921
 H     38  37  36     2.073633329554   109.66654956   122.52727268
 H     38  37  36     2.066197354417   109.47685933     6.10370691
 H     39  38  37     2.068351082750   108.22011793   301.03617846
 H     39  38  37     2.067208341821   109.47329603    56.32211551
 H     40  39  38     2.069060232626   108.88602373   143.49767096
 H     40  39  38     2.069143221615   109.67480207    27.78613959
 H     42  41  40     2.067456878933   109.55570500   296.37895547
 H     42  41  40     2.068996885668   109.55027101    52.89468025
 H     41  40  39     2.069479302856   109.30480421   299.89584466
 H     41  40  39     2.069955650377   108.60961758   184.40860823
 H     10   8   7     2.052795862093   121.19733546   180.04978735
 H     36  35  34     2.045873404994   121.66314262   179.88225040

---------------------
BASIS SET INFORMATION
---------------------
There are 5 groups of distinct atoms

 Group   1 Type C   : 11s6p2d1f contracted to 5s3p2d1f pattern {62111/411/11/1}
 Group   2 Type N   : 11s6p2d1f contracted to 5s3p2d1f pattern {62111/411/11/1}
 Group   3 Type H   : 5s1p contracted to 3s1p pattern {311/1}
 Group   4 Type O   : 11s6p2d1f contracted to 5s3p2d1f pattern {62111/411/11/1}
 Group   5 Type S   : 14s9p3d1f contracted to 5s5p2d1f pattern {73211/51111/21/1}

Atom   0C    basis set group =>   1
Atom   1C    basis set group =>   1
Atom   2C    basis set group =>   1
Atom   3C    basis set group =>   1
Atom   4C    basis set group =>   1
Atom   5C    basis set group =>   1
Atom   6C    basis set group =>   1
Atom   7C    basis set group =>   1
Atom   8N    basis set group =>   2
Atom   9C    basis set group =>   1
Atom  10C    basis set group =>   1
Atom  11C    basis set group =>   1
Atom  12C    basis set group =>   1
Atom  13H    basis set group =>   3
Atom  14H    basis set group =>   3
Atom  15H    basis set group =>   3
Atom  16H    basis set group =>   3
Atom  17H    basis set group =>   3
Atom  18H    basis set group =>   3
Atom  19H    basis set group =>   3
Atom  20C    basis set group =>   1
Atom  21N    basis set group =>   2
Atom  22O    basis set group =>   4
Atom  23C    basis set group =>   1
Atom  24C    basis set group =>   1
Atom  25C    basis set group =>   1
Atom  26N    basis set group =>   2
Atom  27O    basis set group =>   4
Atom  28C    basis set group =>   1
Atom  29C    basis set group =>   1
Atom  30H    basis set group =>   3
Atom  31H    basis set group =>   3
Atom  32C    basis set group =>   1
Atom  33C    basis set group =>   1
Atom  34S    basis set group =>   5
Atom  35C    basis set group =>   1
Atom  36C    basis set group =>   1
Atom  37C    basis set group =>   1
Atom  38C    basis set group =>   1
Atom  39C    basis set group =>   1
Atom  40C    basis set group =>   1
Atom  41C    basis set group =>   1
Atom  42C    basis set group =>   1
Atom  43H    basis set group =>   3
Atom  44H    basis set group =>   3
Atom  45H    basis set group =>   3
Atom  46H    basis set group =>   3
Atom  47H    basis set group =>   3
Atom  48H    basis set group =>   3
Atom  49H    basis set group =>   3
Atom  50H    basis set group =>   3
Atom  51H    basis set group =>   3
Atom  52H    basis set group =>   3
Atom  53H    basis set group =>   3
Atom  54H    basis set group =>   3
Atom  55H    basis set group =>   3
Atom  56H    basis set group =>   3
Atom  57H    basis set group =>   3
Atom  58H    basis set group =>   3
-------------------------------
AUXILIARY BASIS SET INFORMATION
-------------------------------
There are 5 groups of distinct atoms

 Group   1 Type C   : 12s5p4d2f1g contracted to 6s4p3d1f1g pattern {711111/2111/211/2/1}
 Group   2 Type N   : 12s5p4d2f1g contracted to 6s4p3d1f1g pattern {711111/2111/211/2/1}
 Group   3 Type H   : 5s2p1d contracted to 3s1p1d pattern {311/2/1}
 Group   4 Type O   : 12s5p4d2f1g contracted to 6s4p3d1f1g pattern {711111/2111/211/2/1}
 Group   5 Type S   : 14s5p5d2f1g contracted to 8s4p3d1f1g pattern {71111111/2111/311/2/1}

Atom   0C    basis set group =>   1
Atom   1C    basis set group =>   1
Atom   2C    basis set group =>   1
Atom   3C    basis set group =>   1
Atom   4C    basis set group =>   1
Atom   5C    basis set group =>   1
Atom   6C    basis set group =>   1
Atom   7C    basis set group =>   1
Atom   8N    basis set group =>   2
Atom   9C    basis set group =>   1
Atom  10C    basis set group =>   1
Atom  11C    basis set group =>   1
Atom  12C    basis set group =>   1
Atom  13H    basis set group =>   3
Atom  14H    basis set group =>   3
Atom  15H    basis set group =>   3
Atom  16H    basis set group =>   3
Atom  17H    basis set group =>   3
Atom  18H    basis set group =>   3
Atom  19H    basis set group =>   3
Atom  20C    basis set group =>   1
Atom  21N    basis set group =>   2
Atom  22O    basis set group =>   4
Atom  23C    basis set group =>   1
Atom  24C    basis set group =>   1
Atom  25C    basis set group =>   1
Atom  26N    basis set group =>   2
Atom  27O    basis set group =>   4
Atom  28C    basis set group =>   1
Atom  29C    basis set group =>   1
Atom  30H    basis set group =>   3
Atom  31H    basis set group =>   3
Atom  32C    basis set group =>   1
Atom  33C    basis set group =>   1
Atom  34S    basis set group =>   5
Atom  35C    basis set group =>   1
Atom  36C    basis set group =>   1
Atom  37C    basis set group =>   1
Atom  38C    basis set group =>   1
Atom  39C    basis set group =>   1
Atom  40C    basis set group =>   1
Atom  41C    basis set group =>   1
Atom  42C    basis set group =>   1
Atom  43H    basis set group =>   3
Atom  44H    basis set group =>   3
Atom  45H    basis set group =>   3
Atom  46H    basis set group =>   3
Atom  47H    basis set group =>   3
Atom  48H    basis set group =>   3
Atom  49H    basis set group =>   3
Atom  50H    basis set group =>   3
Atom  51H    basis set group =>   3
Atom  52H    basis set group =>   3
Atom  53H    basis set group =>   3
Atom  54H    basis set group =>   3
Atom  55H    basis set group =>   3
Atom  56H    basis set group =>   3
Atom  57H    basis set group =>   3
Atom  58H    basis set group =>   3
-------------------------
ECP PARAMETER INFORMATION
-------------------------



--------------------------------------------------------------------------
[[10291,1],7]: A high-performance Open MPI point-to-point messaging module
was unable to find any relevant network interfaces:

Module: OpenFabrics (openib)
  Host: cx1-103-16-2

Another transport will be used instead, although this may result in
lower performance.
--------------------------------------------------------------------------


           ************************************************************
           *        Program running with 24 parallel MPI-processes    *
           *              working on a common directory               *
           ************************************************************
------------------------------------------------------------------------------
                           ORCA GTO INTEGRAL CALCULATION
                           -- RI-GTO INTEGRALS CHOSEN --
------------------------------------------------------------------------------

                         BASIS SET STATISTICS AND STARTUP INFO

Gaussian basis set:
 # of primitive gaussian shells          ...  837
 # of primitive gaussian functions       ... 1781
 # of contracted shells                  ...  476
 # of contracted basis functions         ... 1210
 Highest angular momentum                ...    3
 Maximum contraction depth               ...    7
Auxiliary gaussian basis set:
 # of primitive gaussian shells          ... 1019
 # of primitive gaussian functions       ... 2787
 # of contracted shells                  ...  637
 # of contracted aux-basis functions     ... 1943
 Highest angular momentum                ...    4
 Maximum contraction depth               ...    7
Ratio of auxiliary to basis functions    ...  1.61
Integral package used                  ... LIBINT
 One Electron integrals                  
   ECP integrals                         ... done
 Ordering auxiliary basis shells         ... done
 Integral threshhold             Thresh  ...  2.500e-11
 Primitive cut-off               TCut    ...  2.500e-12
 Pre-screening matrix                    ... done
 Shell pair data                         ... 
 Ordering of the shell pairs             ... done (   0.014 sec) 50451 of 113526 pairs
 Determination of significant pairs      ... done (   0.000 sec)
 Creation of shell pair data             ... done (   0.009 sec)
 Storage of shell pair data              ... done (   0.126 sec)
 Shell pair data done in (   0.149 sec)
 Computing two index integrals           ... done
 Cholesky decomposition of the V-matrix  ... done


Timings:
 Total evaluation time                   ...   5.299 sec (  0.088 min)
 One electron matrix time                ...   1.697 sec (  0.028 min) = 32.0%
 Schwartz matrix evaluation time         ...   1.688 sec (  0.028 min) = 31.9%
 Two index repulsion integral time       ...   1.040 sec (  0.017 min) = 19.6%
 Cholesky decomposition of V             ...   0.684 sec (  0.011 min) = 12.9%
 Three index repulsion integral time     ...   0.000 sec (  0.000 min) =  0.0%

--------------------------------------------------------------------------
[[10343,1],14]: A high-performance Open MPI point-to-point messaging module
was unable to find any relevant network interfaces:

Module: OpenFabrics (openib)
  Host: cx1-103-16-2

Another transport will be used instead, although this may result in
lower performance.
--------------------------------------------------------------------------


           ************************************************************
           *        Program running with 24 parallel MPI-processes    *
           *              working on a common directory               *
           ************************************************************
-------------------------------------------------------------------------------
                                 ORCA SCF
-------------------------------------------------------------------------------

------------
SCF SETTINGS
------------
Hamiltonian:
 Density Functional     Method          .... DFT(GTOs)
 Exchange Functional    Exchange        .... WB97X-D3
 Correlation Functional Correlation     .... WB97X-D3
 Gradients option       PostSCFGGA      .... off
 Hybrid DFT is turned on
   Fraction HF Exchange ScalHFX         ....  0.195728
   Scaling of DF-GGA-X  ScalDFX         ....  0.000000
   Scaling of DF-GGA-C  ScalDFC         ....  1.000000
   Scaling of DF-LDA-C  ScalLDAC        ....  1.000000
   Perturbative correction              ....  0.000000
 Long-range corrected/Screened/Range-Separated Hybrid DFT is turned on
   Amount of maximum screened exact exchange              ....  0.804272
   Range separation parameter mu (erf(mu*r12)/r12)        ....  0.250000
 RI-approximation to the Coulomb term is turned on
   Number of auxiliary basis functions  .... 1943
   RIJ-COSX (HFX calculated with COS-X)).... on


General Settings:
 Integral files         IntName         .... total
 Hartree-Fock type      HFTyp           .... RHF
 Total Charge           Charge          ....    0
 Multiplicity           Mult            ....    1
 Number of Electrons    NEL             ....  246
 Basis Dimension        Dim             .... 1210
 Nuclear Repulsion      ENuc            ....   3132.1089128386 Eh

Convergence Acceleration:
 DIIS                   CNVDIIS         .... on
   Start iteration      DIISMaxIt       ....    12
   Startup error        DIISStart       ....  0.200000
   # of expansion vecs  DIISMaxEq       ....     5
   Bias factor          DIISBfac        ....   1.050
   Max. coefficient     DIISMaxC        ....  10.000
 Newton-Raphson         CNVNR           .... off
 SOSCF                  CNVSOSCF        .... on
   Start iteration      SOSCFMaxIt      ....   150
   Startup grad/error   SOSCFStart      ....  0.003300
 Level Shifting         CNVShift        .... on
   Level shift para.    LevelShift      ....    0.2500
   Turn off err/grad.   ShiftErr        ....    0.0010
 Zerner damping         CNVZerner       .... off
 Static damping         CNVDamp         .... on
   Fraction old density DampFac         ....    0.7000
   Max. Damping (<1)    DampMax         ....    0.9800
   Min. Damping (>=0)   DampMin         ....    0.0000
   Turn off err/grad.   DampErr         ....    0.1000
 Fernandez-Rico         CNVRico         .... off

SCF Procedure:
 Maximum # iterations   MaxIter         ....   125
 SCF integral mode      SCFMode         .... Direct
   Integral package                     .... LIBINT
 Reset frequeny         DirectResetFreq ....    20
 Integral Threshold     Thresh          ....  2.500e-11 Eh
 Primitive CutOff       TCut            ....  2.500e-12 Eh

Convergence Tolerance:
 Convergence Check Mode ConvCheckMode   .... Total+1el-Energy
 Convergence forced     ConvForced      .... 1
 Energy Change          TolE            ....  1.000e-08 Eh
 1-El. energy change                    ....  1.000e-05 Eh
 Orbital Gradient       TolG            ....  1.000e-05
 Orbital Rotation angle TolX            ....  1.000e-05
 DIIS Error             TolErr          ....  5.000e-07


Diagonalization of the overlap matrix:
Smallest eigenvalue                        ... 5.718e-06
Time for diagonalization                   ...    0.443 sec
Threshold for overlap eigenvalues          ... 1.000e-08
Number of eigenvalues below threshold      ... 0
Time for construction of square roots      ...    0.461 sec
Total time needed                          ...    0.910 sec

-------------------
DFT GRID GENERATION
-------------------

General Integration Accuracy     IntAcc      ...  5.010
Radial Grid Type                 RadialGrid  ... Gauss-Chebyshev
Angular Grid (max. acc.)         AngularGrid ... Lebedev-434
Angular grid pruning method      GridPruning ... 3 (G Style)
Weight generation scheme         WeightScheme... Becke
Basis function cutoff            BFCut       ...    1.0000e-11
Integration weight cutoff        WCut        ...    1.0000e-14
Grids for H and He will be reduced by one unit

# of grid points (after initial pruning)     ... 532038 (   0.3 sec)
# of grid points (after weights+screening)   ... 464510 (   1.8 sec)
nearest neighbour list constructed           ...    0.0 sec
Grid point re-assignment to atoms done       ...    0.1 sec
Grid point division into batches done        ...    3.7 sec
Reduced shell lists constructed in    4.5 sec

Total number of grid points                  ...   464510
Total number of batches                      ...     7286
Average number of points per batch           ...       63
Average number of grid points per atom       ...     7873
Average number of shells per batch           ...   137.43 (28.87%)
Average number of basis functions per batch  ...   357.60 (29.55%)
Average number of large shells per batch     ...    95.77 (69.69%)
Average number of large basis fcns per batch ...   248.74 (69.56%)
Maximum spatial batch extension              ...  12.78, 19.34, 14.91 au
Average spatial batch extension              ...   0.06,  0.07,  0.06 au

Time for grid setup =    7.867 sec

------------------------------
INITIAL GUESS: MODEL POTENTIAL
------------------------------
Loading Hartree-Fock densities                     ... done
Calculating cut-offs                               ... done
Setting up the integral package                    ... done
Initializing the effective Hamiltonian             ... done
Starting the Coulomb interaction                   ... done (   0.4 sec)
Reading the grid                                   ... done
Mapping shells                                     ... done
Starting the XC term evaluation                    ... done (   2.0 sec)
  promolecular density results
     # of electrons  =    245.987781363
     EX              =   -211.483570451
     EC              =     -8.370034646
     EX+EC           =   -219.853605096
Transforming the Hamiltonian                       ... done (   0.2 sec)
Diagonalizing the Hamiltonian                      ... done (   0.4 sec)
Back transforming the eigenvectors                 ... done (   0.1 sec)
Now organizing SCF variables                       ... done
                      ------------------
                      INITIAL GUESS DONE (  11.4 sec)
                      ------------------
--------------------
COSX GRID GENERATION
--------------------

General Integration Accuracy     IntAcc      ...  3.340
Radial Grid Type                 RadialGrid  ... Gauss-Chebyshev
Angular Grid (max. acc.)         AngularGrid ... Lebedev-50
Angular grid pruning method      GridPruning ... 3 (G Style)
Weight generation scheme         WeightScheme... Becke
Basis function cutoff            BFCut       ...    1.0000e-11
Integration weight cutoff        WCut        ...    1.0000e-14
Grids for H and He will be reduced by one unit

# of grid points (after initial pruning)     ...  27804 (   0.0 sec)
# of grid points (after weights+screening)   ...  25224 (   0.1 sec)
nearest neighbour list constructed           ...    0.0 sec
Grid point re-assignment to atoms done       ...    0.0 sec
Grid point division into batches done        ...    0.0 sec
Reduced shell lists constructed in    0.1 sec

Total number of grid points                  ...    25224
Total number of batches                      ...      422
Average number of points per batch           ...       59
Average number of grid points per atom       ...      428
Average number of shells per batch           ...   149.26 (31.36%)
Average number of basis functions per batch  ...   392.84 (32.47%)
Average number of large shells per batch     ...   106.47 (71.33%)
Average number of large basis fcns per batch ...   280.79 (71.48%)
Maximum spatial batch extension              ...   4.82,  7.14, 15.67 au
Average spatial batch extension              ...   0.11,  0.11,  0.21 au

Overlap Fitting                  UseSFitting ... on
Constructing numerical overlap ... done (      0.1 sec)
Inverting numerical overlap    ... done (      0.2 sec)
Obtaining analytic overlap     ... done (      0.0 sec)
Final contraction and storage  ... done (      0.6 sec)


General Integration Accuracy     IntAcc      ...  3.670
Radial Grid Type                 RadialGrid  ... Gauss-Chebyshev
Angular Grid (max. acc.)         AngularGrid ... Lebedev-50
Angular grid pruning method      GridPruning ... 3 (G Style)
Weight generation scheme         WeightScheme... Becke
Basis function cutoff            BFCut       ...    1.0000e-11
Integration weight cutoff        WCut        ...    1.0000e-14
Grids for H and He will be reduced by one unit

# of grid points (after initial pruning)     ...  35116 (   0.0 sec)
# of grid points (after weights+screening)   ...  31741 (   0.1 sec)
nearest neighbour list constructed           ...    0.0 sec
Grid point re-assignment to atoms done       ...    0.0 sec
Grid point division into batches done        ...    0.0 sec
Reduced shell lists constructed in    0.1 sec

Total number of grid points                  ...    31741
Total number of batches                      ...      525
Average number of points per batch           ...       60
Average number of grid points per atom       ...      538
Average number of shells per batch           ...   147.96 (31.08%)
Average number of basis functions per batch  ...   388.48 (32.11%)
Average number of large shells per batch     ...   104.13 (70.38%)
Average number of large basis fcns per batch ...   272.83 (70.23%)
Maximum spatial batch extension              ...  10.68, 11.33, 18.57 au
Average spatial batch extension              ...   0.14,  0.13,  0.26 au

Overlap Fitting                  UseSFitting ... on
Constructing numerical overlap ... done (      0.1 sec)
Inverting numerical overlap    ... done (      0.2 sec)
Obtaining analytic overlap     ... done (      0.0 sec)
Final contraction and storage  ... done (      0.6 sec)


General Integration Accuracy     IntAcc      ...  4.010
Radial Grid Type                 RadialGrid  ... Gauss-Chebyshev
Angular Grid (max. acc.)         AngularGrid ... Lebedev-110
Angular grid pruning method      GridPruning ... 3 (G Style)
Weight generation scheme         WeightScheme... Becke
Basis function cutoff            BFCut       ...    1.0000e-11
Integration weight cutoff        WCut        ...    1.0000e-14
Grids for H and He will be reduced by one unit

# of grid points (after initial pruning)     ...  66684 (   0.0 sec)
# of grid points (after weights+screening)   ...  59847 (   0.2 sec)
nearest neighbour list constructed           ...    0.0 sec
Grid point re-assignment to atoms done       ...    0.0 sec
Grid point division into batches done        ...    0.1 sec
Reduced shell lists constructed in    0.1 sec

Total number of grid points                  ...    59847
Total number of batches                      ...      960
Average number of points per batch           ...       62
Average number of grid points per atom       ...     1014
Average number of shells per batch           ...   146.05 (30.68%)
Average number of basis functions per batch  ...   383.12 (31.66%)
Average number of large shells per batch     ...   102.49 (70.17%)
Average number of large basis fcns per batch ...   268.05 (69.96%)
Maximum spatial batch extension              ...  10.41, 16.44, 17.94 au
Average spatial batch extension              ...   0.11,  0.12,  0.16 au

Overlap Fitting                  UseSFitting ... on
Constructing numerical overlap ... done (      0.2 sec)
Inverting numerical overlap    ... done (      0.2 sec)
Obtaining analytic overlap     ... done (      0.0 sec)
Final contraction and storage  ... done (      0.6 sec)

Time for X-Grid setup             =    4.049 sec
--------------
SCF ITERATIONS
--------------
ITER       Energy         Delta-E        Max-DP      RMS-DP      [F,P]     Damp
               ***  Starting incremental Fock matrix formation  ***
  0  -1794.2351165079   0.000000000000 0.03346156  0.00051021  0.1808243 0.7000
  1  -1794.5215395667  -0.286423058764 0.02674005  0.00041848  0.1084709 0.7000
                               ***Turning on DIIS***
  2  -1794.6704071839  -0.148867617248 0.08358623  0.00095666  0.0557086 0.0000
  3  -1794.9124060083  -0.241998824416 0.02989147  0.00027590  0.0455405 0.0000
  4  -1794.9499156910  -0.037509682652 0.01910311  0.00012005  0.0060672 0.0000
  5  -1794.9510297415  -0.001114050552 0.00532190  0.00004548  0.0047792 0.0000
                      *** Initiating the SOSCF procedure ***
                           *** Shutting down DIIS ***
                      *** Re-Reading the Fockian *** 
                      *** Removing any level shift *** 
ITER      Energy       Delta-E        Grad      Rot      Max-DP    RMS-DP
  6  -1794.95126975  -0.0002400126  0.000981  0.000981  0.003219  0.000024
               *** Restarting incremental Fock matrix formation ***
  7  -1794.95135205  -0.0000822962  0.000689  0.001983  0.007802  0.000091
  8  -1794.95138285  -0.0000308007  0.000394  0.001892  0.005344  0.000064
  9  -1794.95139203  -0.0000091802  0.000171  0.000473  0.004459  0.000054
 10  -1794.95139547  -0.0000034401  0.000046  0.000130  0.000732  0.000009
 11  -1794.95139563  -0.0000001557  0.000045  0.000090  0.000345  0.000004
 12  -1794.95139569  -0.0000000627  0.000006  0.000022  0.000306  0.000002
 13  -1794.95139564   0.0000000537  0.000004  0.000008  0.000105  0.000001
                  ***Gradient check signals convergence***
              ***Rediagonalizing the Fockian in SOSCF/NRSCF***

               *****************************************************
               *                     SUCCESS                       *
               *           SCF CONVERGED AFTER  14 CYCLES          *
               *****************************************************

Old exchange energy                            =    -68.498431797 Eh
New exchange energy                            =    -68.498439651 Eh
Exchange energy change after final integration =     -0.000007854 Eh
Total energy after final integration           =  -1794.951403551 Eh
Final COS-X integration done in                =    38.818 sec

----------------
TOTAL SCF ENERGY
----------------

Total Energy       :        -1794.95140355 Eh          -48843.11083 eV

Components:
Nuclear Repulsion  :         3132.10891284 Eh           85229.01648 eV
Electronic Energy  :        -4927.06031639 Eh         -134072.12730 eV
One Electron Energy:        -8671.08155897 Eh         -235952.12479 eV
Two Electron Energy:         3744.02124258 Eh          101879.99749 eV

Virial components:
Potential Energy   :        -3581.91568774 Eh          -97468.88109 eV
Kinetic Energy     :         1786.96428419 Eh           48625.77026 eV
Virial Ratio       :            2.00446966


DFT components:
N(Alpha)           :      122.999990604978 electrons
N(Beta)            :      122.999990604978 electrons
N(Total)           :      245.999981209956 electrons
E(XC)              :     -156.190394588415 Eh       

---------------
SCF CONVERGENCE
---------------

  Last Energy change         ...   -6.0359e-08  Tolerance :   1.0000e-08
  Last MAX-Density change    ...    1.1879e-14  Tolerance :   1.0000e-07
  Last RMS-Density change    ...    1.3904e-16  Tolerance :   5.0000e-09
  Last Orbital Gradient      ...    1.1162e-06  Tolerance :   1.0000e-05
  Last Orbital Rotation      ...    3.0041e-06  Tolerance :   1.0000e-05

             **** THE GBW FILE WAS UPDATED (total.gbw) ****
             **** DENSITY FILE WAS UPDATED (total.scfp.tmp) ****
             **** ENERGY FILE WAS UPDATED (total.en.tmp) ****
----------------
ORBITAL ENERGIES
----------------

  NO   OCC          E(Eh)            E(eV) 
   0   2.0000     -88.984386     -2421.3882 
   1   2.0000     -19.339803      -526.2628 
   2   2.0000     -19.333213      -526.0835 
   3   2.0000     -14.483410      -394.1136 
   4   2.0000     -14.476570      -393.9275 
   5   2.0000     -14.473168      -393.8349 
   6   2.0000     -10.370678      -282.2005 
   7   2.0000     -10.370276      -282.1896 
   8   2.0000     -10.345978      -281.5284 
   9   2.0000     -10.339474      -281.3514 
  10   2.0000     -10.336761      -281.2776 
  11   2.0000     -10.329358      -281.0761 
  12   2.0000     -10.328228      -281.0454 
  13   2.0000     -10.320977      -280.8481 
  14   2.0000     -10.312483      -280.6169 
  15   2.0000     -10.306566      -280.4559 
  16   2.0000     -10.302943      -280.3573 
  17   2.0000     -10.302645      -280.3492 
  18   2.0000     -10.300011      -280.2776 
  19   2.0000     -10.297581      -280.2114 
  20   2.0000     -10.296636      -280.1857 
  21   2.0000     -10.295281      -280.1488 
  22   2.0000     -10.293360      -280.0966 
  23   2.0000     -10.289646      -279.9955 
  24   2.0000     -10.288015      -279.9511 
  25   2.0000     -10.286675      -279.9146 
  26   2.0000     -10.283883      -279.8387 
  27   2.0000     -10.283023      -279.8153 
  28   2.0000     -10.275188      -279.6021 
  29   2.0000     -10.274032      -279.5706 
  30   2.0000     -10.271104      -279.4909 
  31   2.0000     -10.270542      -279.4757 
  32   2.0000     -10.269329      -279.4426 
  33   2.0000     -10.261359      -279.2258 
  34   2.0000      -8.080710      -219.8873 
  35   2.0000      -6.033983      -164.1930 
  36   2.0000      -6.029880      -164.0814 
  37   2.0000      -6.027849      -164.0261 
  38   2.0000      -1.288944       -35.0739 
  39   2.0000      -1.280599       -34.8469 
  40   2.0000      -1.110632       -30.2218 
  41   2.0000      -1.018197       -27.7066 
  42   2.0000      -1.006624       -27.3916 
  43   2.0000      -0.987060       -26.8593 
  44   2.0000      -0.976453       -26.5706 
  45   2.0000      -0.967445       -26.3255 
  46   2.0000      -0.939993       -25.5785 
  47   2.0000      -0.932983       -25.3878 
  48   2.0000      -0.918538       -24.9947 
  49   2.0000      -0.905228       -24.6325 
  50   2.0000      -0.900037       -24.4912 
  51   2.0000      -0.875149       -23.8140 
  52   2.0000      -0.860715       -23.4212 
  53   2.0000      -0.851274       -23.1644 
  54   2.0000      -0.849212       -23.1082 
  55   2.0000      -0.844001       -22.9664 
  56   2.0000      -0.814371       -22.1602 
  57   2.0000      -0.780331       -21.2339 
  58   2.0000      -0.771635       -20.9973 
  59   2.0000      -0.762736       -20.7551 
  60   2.0000      -0.745734       -20.2924 
  61   2.0000      -0.734603       -19.9896 
  62   2.0000      -0.722473       -19.6595 
  63   2.0000      -0.718055       -19.5393 
  64   2.0000      -0.712447       -19.3867 
  65   2.0000      -0.705862       -19.2075 
  66   2.0000      -0.696884       -18.9632 
  67   2.0000      -0.677740       -18.4422 
  68   2.0000      -0.666494       -18.1362 
  69   2.0000      -0.653327       -17.7779 
  70   2.0000      -0.637076       -17.3357 
  71   2.0000      -0.631266       -17.1776 
  72   2.0000      -0.618860       -16.8400 
  73   2.0000      -0.610076       -16.6010 
  74   2.0000      -0.607682       -16.5359 
  75   2.0000      -0.602189       -16.3864 
  76   2.0000      -0.590029       -16.0555 
  77   2.0000      -0.585393       -15.9294 
  78   2.0000      -0.578951       -15.7541 
  79   2.0000      -0.567668       -15.4470 
  80   2.0000      -0.565986       -15.4013 
  81   2.0000      -0.560443       -15.2504 
  82   2.0000      -0.557379       -15.1671 
  83   2.0000      -0.550925       -14.9914 
  84   2.0000      -0.539988       -14.6938 
  85   2.0000      -0.533611       -14.5203 
  86   2.0000      -0.533190       -14.5088 
  87   2.0000      -0.529582       -14.4107 
  88   2.0000      -0.526517       -14.3272 
  89   2.0000      -0.519440       -14.1347 
  90   2.0000      -0.518757       -14.1161 
  91   2.0000      -0.515828       -14.0364 
  92   2.0000      -0.502282       -13.6678 
  93   2.0000      -0.500000       -13.6057 
  94   2.0000      -0.494100       -13.4451 
  95   2.0000      -0.486579       -13.2405 
  96   2.0000      -0.478369       -13.0171 
  97   2.0000      -0.475957       -12.9514 
  98   2.0000      -0.471760       -12.8373 
  99   2.0000      -0.470753       -12.8098 
 100   2.0000      -0.467222       -12.7138 
 101   2.0000      -0.456293       -12.4164 
 102   2.0000      -0.450458       -12.2576 
 103   2.0000      -0.448497       -12.2042 
 104   2.0000      -0.446299       -12.1444 
 105   2.0000      -0.439962       -11.9720 
 106   2.0000      -0.436923       -11.8893 
 107   2.0000      -0.430828       -11.7234 
 108   2.0000      -0.430032       -11.7018 
 109   2.0000      -0.417371       -11.3572 
 110   2.0000      -0.415483       -11.3059 
 111   2.0000      -0.413012       -11.2386 
 112   2.0000      -0.405163       -11.0251 
 113   2.0000      -0.403291       -10.9741 
 114   2.0000      -0.401011       -10.9121 
 115   2.0000      -0.394616       -10.7381 
 116   2.0000      -0.374297       -10.1851 
 117   2.0000      -0.346980        -9.4418 
 118   2.0000      -0.337743        -9.1905 
 119   2.0000      -0.333891        -9.0856 
 120   2.0000      -0.310030        -8.4364 
 121   2.0000      -0.303774        -8.2661 
 122   2.0000      -0.292699        -7.9647 
 123   0.0000      -0.002552        -0.0694 
 124   0.0000       0.013796         0.3754 
 125   0.0000       0.032209         0.8765 
 126   0.0000       0.048044         1.3073 
 127   0.0000       0.080652         2.1947 
 128   0.0000       0.091696         2.4952 
 129   0.0000       0.093110         2.5337 
 130   0.0000       0.104433         2.8418 
 131   0.0000       0.106428         2.8960 
 132   0.0000       0.112228         3.0539 
 133   0.0000       0.114568         3.1176 
 134   0.0000       0.121133         3.2962 
 135   0.0000       0.125138         3.4052 
 136   0.0000       0.131722         3.5843 
 137   0.0000       0.134154         3.6505 
 138   0.0000       0.137957         3.7540 
 139   0.0000       0.140956         3.8356 
 140   0.0000       0.151408         4.1200 
 141   0.0000       0.156426         4.2566 
 142   0.0000       0.159493         4.3400 
 143   0.0000       0.161620         4.3979 
 144   0.0000       0.163186         4.4405 
 145   0.0000       0.167333         4.5534 
 146   0.0000       0.169213         4.6045 
 147   0.0000       0.173788         4.7290 
 148   0.0000       0.176586         4.8051 
 149   0.0000       0.179715         4.8903 
 150   0.0000       0.181483         4.9384 
 151   0.0000       0.182892         4.9767 
 152   0.0000       0.187214         5.0944 
 153   0.0000       0.191204         5.2029 
 154   0.0000       0.194156         5.2833 
 155   0.0000       0.195245         5.3129 
 156   0.0000       0.199959         5.4412 
 157   0.0000       0.206302         5.6138 
 158   0.0000       0.209460         5.6997 
 159   0.0000       0.211457         5.7540 
 160   0.0000       0.211886         5.7657 
 161   0.0000       0.221150         6.0178 
 162   0.0000       0.222853         6.0641 
 163   0.0000       0.227820         6.1993 
 164   0.0000       0.230137         6.2623 
 165   0.0000       0.231581         6.3016 
 166   0.0000       0.235985         6.4215 
 167   0.0000       0.238815         6.4985 
 168   0.0000       0.239711         6.5229 
 169   0.0000       0.248637         6.7658 
 170   0.0000       0.250801         6.8246 
 171   0.0000       0.254394         6.9224 
 172   0.0000       0.257961         7.0195 
 173   0.0000       0.261634         7.1194 
 174   0.0000       0.266095         7.2408 
 175   0.0000       0.272165         7.4060 
 176   0.0000       0.274025         7.4566 
 177   0.0000       0.274305         7.4642 
 178   0.0000       0.275670         7.5014 
 179   0.0000       0.279623         7.6089 
 180   0.0000       0.283785         7.7222 
 181   0.0000       0.286123         7.7858 
 182   0.0000       0.289691         7.8829 
 183   0.0000       0.291660         7.9365 
 184   0.0000       0.293896         7.9973 
 185   0.0000       0.295220         8.0333 
 186   0.0000       0.299401         8.1471 
 187   0.0000       0.301339         8.1999 
 188   0.0000       0.303649         8.2627 
 189   0.0000       0.305683         8.3181 
 190   0.0000       0.308649         8.3988 
 191   0.0000       0.312685         8.5086 
 192   0.0000       0.315878         8.5955 
 193   0.0000       0.320153         8.7118 
 194   0.0000       0.326288         8.8788 
 195   0.0000       0.327344         8.9075 
 196   0.0000       0.332749         9.0546 
 197   0.0000       0.333244         9.0680 
 198   0.0000       0.335851         9.1390 
 199   0.0000       0.340850         9.2750 
 200   0.0000       0.341328         9.2880 
 201   0.0000       0.344620         9.3776 
 202   0.0000       0.348788         9.4910 
 203   0.0000       0.349941         9.5224 
 204   0.0000       0.356395         9.6980 
 205   0.0000       0.358315         9.7503 
 206   0.0000       0.364389         9.9155 
 207   0.0000       0.364894         9.9293 
 208   0.0000       0.366978         9.9860 
 209   0.0000       0.369759        10.0617 
 210   0.0000       0.373121        10.1531 
 211   0.0000       0.376466        10.2442 
 212   0.0000       0.377414        10.2700 
 213   0.0000       0.378620        10.3028 
 214   0.0000       0.380059        10.3419 
 215   0.0000       0.384979        10.4758 
 216   0.0000       0.390028        10.6132 
 217   0.0000       0.394113        10.7244 
 218   0.0000       0.394803        10.7431 
 219   0.0000       0.398318        10.8388 
 220   0.0000       0.400161        10.8889 
 221   0.0000       0.405747        11.0409 
 222   0.0000       0.407951        11.1009 
 223   0.0000       0.410789        11.1781 
 224   0.0000       0.418646        11.3919 
 225   0.0000       0.419901        11.4261 
 226   0.0000       0.421711        11.4753 
 227   0.0000       0.423820        11.5327 
 228   0.0000       0.429118        11.6769 
 229   0.0000       0.430288        11.7087 
 230   0.0000       0.432799        11.7771 
 231   0.0000       0.435290        11.8448 
 232   0.0000       0.439400        11.9567 
 233   0.0000       0.441602        12.0166 
 234   0.0000       0.445867        12.1327 
 235   0.0000       0.449583        12.2338 
 236   0.0000       0.453854        12.3500 
 237   0.0000       0.455898        12.4056 
 238   0.0000       0.459434        12.5018 
 239   0.0000       0.461610        12.5610 
 240   0.0000       0.464649        12.6437 
 241   0.0000       0.466317        12.6891 
 242   0.0000       0.468552        12.7499 
 243   0.0000       0.470377        12.7996 
 244   0.0000       0.474668        12.9164 
 245   0.0000       0.476243        12.9592 
 246   0.0000       0.479007        13.0345 
 247   0.0000       0.480079        13.0636 
 248   0.0000       0.483499        13.1567 
 249   0.0000       0.488852        13.3023 
 250   0.0000       0.489516        13.3204 
 251   0.0000       0.492601        13.4043 
 252   0.0000       0.496478        13.5099 
 253   0.0000       0.497443        13.5361 
 254   0.0000       0.499022        13.5791 
 255   0.0000       0.501553        13.6479 
 256   0.0000       0.503482        13.7004 
 257   0.0000       0.507327        13.8051 
 258   0.0000       0.510442        13.8898 
 259   0.0000       0.513061        13.9611 
 260   0.0000       0.515573        14.0294 
 261   0.0000       0.520769        14.1708 
 262   0.0000       0.524645        14.2763 
 263   0.0000       0.527283        14.3481 
 264   0.0000       0.528934        14.3930 
 265   0.0000       0.530994        14.4491 
 266   0.0000       0.533309        14.5121 
 267   0.0000       0.536423        14.5968 
 268   0.0000       0.538597        14.6560 
 269   0.0000       0.540036        14.6951 
 270   0.0000       0.543231        14.7821 
 271   0.0000       0.544023        14.8036 
 272   0.0000       0.547172        14.8893 
 273   0.0000       0.548769        14.9328 
 274   0.0000       0.551397        15.0043 
 275   0.0000       0.553731        15.0678 
 276   0.0000       0.557023        15.1574 
 277   0.0000       0.559190        15.2163 
 278   0.0000       0.561967        15.2919 
 279   0.0000       0.563812        15.3421 
 280   0.0000       0.565570        15.3899 
 281   0.0000       0.568935        15.4815 
 282   0.0000       0.571409        15.5488 
 283   0.0000       0.573172        15.5968 
 284   0.0000       0.575548        15.6615 
 285   0.0000       0.576158        15.6781 
 286   0.0000       0.583166        15.8687 
 287   0.0000       0.585233        15.9250 
 288   0.0000       0.588163        16.0047 
 289   0.0000       0.593325        16.1452 
 290   0.0000       0.597776        16.2663 
 291   0.0000       0.599637        16.3170 
 292   0.0000       0.606016        16.4905 
 293   0.0000       0.607767        16.5382 
 294   0.0000       0.611769        16.6471 
 295   0.0000       0.615152        16.7391 
 296   0.0000       0.620257        16.8781 
 297   0.0000       0.621693        16.9171 
 298   0.0000       0.625303        17.0154 
 299   0.0000       0.630227        17.1494 
 300   0.0000       0.636476        17.3194 
 301   0.0000       0.638097        17.3635 
 302   0.0000       0.641898        17.4669 
 303   0.0000       0.648492        17.6464 
 304   0.0000       0.660565        17.9749 
 305   0.0000       0.664292        18.0763 
 306   0.0000       0.668168        18.1818 
 307   0.0000       0.671805        18.2808 
 308   0.0000       0.675161        18.3721 
 309   0.0000       0.677212        18.4279 
 310   0.0000       0.680391        18.5144 
 311   0.0000       0.684337        18.6218 
 312   0.0000       0.687148        18.6982 
 313   0.0000       0.692690        18.8491 
 314   0.0000       0.695405        18.9229 
 315   0.0000       0.696711        18.9585 
 316   0.0000       0.698797        19.0152 
 317   0.0000       0.700462        19.0605 
 318   0.0000       0.704172        19.1615 
 319   0.0000       0.706972        19.2377 
 320   0.0000       0.713768        19.4226 
 321   0.0000       0.717516        19.5246 
 322   0.0000       0.720452        19.6045 
 323   0.0000       0.723388        19.6844 
 324   0.0000       0.726781        19.7767 
 325   0.0000       0.735946        20.0261 
 326   0.0000       0.739327        20.1181 
 327   0.0000       0.740932        20.1618 
 328   0.0000       0.745486        20.2857 
 329   0.0000       0.747606        20.3434 
 330   0.0000       0.754122        20.5207 
 331   0.0000       0.758160        20.6306 
 332   0.0000       0.762695        20.7540 
 333   0.0000       0.768175        20.9031 
 334   0.0000       0.770720        20.9724 
 335   0.0000       0.775287        21.0966 
 336   0.0000       0.778408        21.1816 
 337   0.0000       0.779183        21.2026 
 338   0.0000       0.784557        21.3489 
 339   0.0000       0.785834        21.3836 
 340   0.0000       0.792622        21.5683 
 341   0.0000       0.792845        21.5744 
 342   0.0000       0.796363        21.6701 
 343   0.0000       0.802019        21.8240 
 344   0.0000       0.803309        21.8592 
 345   0.0000       0.805829        21.9277 
 346   0.0000       0.808646        22.0044 
 347   0.0000       0.815189        22.1824 
 348   0.0000       0.816884        22.2285 
 349   0.0000       0.821007        22.3407 
 350   0.0000       0.831278        22.6202 
 351   0.0000       0.834978        22.7209 
 352   0.0000       0.840198        22.8629 
 353   0.0000       0.843373        22.9494 
 354   0.0000       0.848397        23.0860 
 355   0.0000       0.853169        23.2159 
 356   0.0000       0.857437        23.3320 
 357   0.0000       0.859097        23.3772 
 358   0.0000       0.866124        23.5684 
 359   0.0000       0.870575        23.6895 
 360   0.0000       0.872670        23.7465 
 361   0.0000       0.878449        23.9038 
 362   0.0000       0.882936        24.0259 
 363   0.0000       0.886394        24.1200 
 364   0.0000       0.892617        24.2894 
 365   0.0000       0.897730        24.4285 
 366   0.0000       0.904331        24.6081 
 367   0.0000       0.905930        24.6516 
 368   0.0000       0.909335        24.7443 
 369   0.0000       0.915269        24.9057 
 370   0.0000       0.919858        25.0306 
 371   0.0000       0.922487        25.1021 
 372   0.0000       0.932303        25.3693 
 373   0.0000       0.933653        25.4060 
 374   0.0000       0.938001        25.5243 
 375   0.0000       0.942568        25.6486 
 376   0.0000       0.946749        25.7624 
 377   0.0000       0.948382        25.8068 
 378   0.0000       0.956303        26.0223 
 379   0.0000       0.958818        26.0908 
 380   0.0000       0.960134        26.1266 
 381   0.0000       0.962704        26.1965 
 382   0.0000       0.966245        26.2929 
 383   0.0000       0.979527        26.6543 
 384   0.0000       0.987576        26.8733 
 385   0.0000       0.988688        26.9036 
 386   0.0000       0.992794        27.0153 
 387   0.0000       0.993750        27.0413 
 388   0.0000       0.998578        27.1727 
 389   0.0000       1.005320        27.3561 
 390   0.0000       1.011357        27.5204 
 391   0.0000       1.015523        27.6338 
 392   0.0000       1.016847        27.6698 
 393   0.0000       1.024394        27.8752 
 394   0.0000       1.027362        27.9559 
 395   0.0000       1.032585        28.0981 
 396   0.0000       1.037482        28.2313 
 397   0.0000       1.045420        28.4473 
 398   0.0000       1.053395        28.6643 
 399   0.0000       1.060001        28.8441 
 400   0.0000       1.061674        28.8896 
 401   0.0000       1.066915        29.0322 
 402   0.0000       1.072551        29.1856 
 403   0.0000       1.076355        29.2891 
 404   0.0000       1.082555        29.4578 
 405   0.0000       1.083604        29.4864 
 406   0.0000       1.088290        29.6139 
 407   0.0000       1.093238        29.7485 
 408   0.0000       1.096466        29.8364 
 409   0.0000       1.102810        30.0090 
 410   0.0000       1.113059        30.2879 
 411   0.0000       1.117394        30.4058 
 412   0.0000       1.120558        30.4919 
 413   0.0000       1.127410        30.6784 
 414   0.0000       1.131395        30.7868 
 415   0.0000       1.136825        30.9346 
 416   0.0000       1.144339        31.1390 
 417   0.0000       1.146713        31.2037 
 418   0.0000       1.149745        31.2861 
 419   0.0000       1.156837        31.4791 
 420   0.0000       1.157294        31.4916 
 421   0.0000       1.165578        31.7170 
 422   0.0000       1.170360        31.8471 
 423   0.0000       1.175170        31.9780 
 424   0.0000       1.176454        32.0129 
 425   0.0000       1.185504        32.2592 
 426   0.0000       1.188776        32.3483 
 427   0.0000       1.195626        32.5346 
 428   0.0000       1.196820        32.5671 
 429   0.0000       1.207437        32.8560 
 430   0.0000       1.214453        33.0470 
 431   0.0000       1.219573        33.1863 
 432   0.0000       1.220945        33.2236 
 433   0.0000       1.227720        33.4079 
 434   0.0000       1.229017        33.4432 
 435   0.0000       1.232718        33.5440 
 436   0.0000       1.241030        33.7701 
 437   0.0000       1.242767        33.8174 
 438   0.0000       1.243722        33.8434 
 439   0.0000       1.249930        34.0123 
 440   0.0000       1.263664        34.3860 
 441   0.0000       1.267296        34.4849 
 442   0.0000       1.271827        34.6082 
 443   0.0000       1.276563        34.7370 
 444   0.0000       1.280210        34.8363 
 445   0.0000       1.285821        34.9890 
 446   0.0000       1.287407        35.0321 
 447   0.0000       1.293008        35.1845 
 448   0.0000       1.297676        35.3116 
 449   0.0000       1.306954        35.5640 
 450   0.0000       1.308995        35.6196 
 451   0.0000       1.314345        35.7651 
 452   0.0000       1.320186        35.9241 
 453   0.0000       1.325208        36.0607 
 454   0.0000       1.330990        36.2181 
 455   0.0000       1.335102        36.3300 
 456   0.0000       1.337858        36.4050 
 457   0.0000       1.347251        36.6606 
 458   0.0000       1.352830        36.8124 
 459   0.0000       1.358114        36.9562 
 460   0.0000       1.360816        37.0297 
 461   0.0000       1.365999        37.1707 
 462   0.0000       1.371139        37.3106 
 463   0.0000       1.376074        37.4449 
 464   0.0000       1.376893        37.4672 
 465   0.0000       1.386385        37.7254 
 466   0.0000       1.389875        37.8204 
 467   0.0000       1.392621        37.8951 
 468   0.0000       1.401218        38.1291 
 469   0.0000       1.403245        38.1842 
 470   0.0000       1.406184        38.2642 
 471   0.0000       1.409043        38.3420 
 472   0.0000       1.419421        38.6244 
 473   0.0000       1.424660        38.7670 
 474   0.0000       1.431965        38.9657 
 475   0.0000       1.439872        39.1809 
 476   0.0000       1.446195        39.3530 
 477   0.0000       1.449522        39.4435 
 478   0.0000       1.455387        39.6031 
 479   0.0000       1.458462        39.6868 
 480   0.0000       1.464937        39.8629 
 481   0.0000       1.473905        40.1070 
 482   0.0000       1.478484        40.2316 
 483   0.0000       1.484013        40.3820 
 484   0.0000       1.487633        40.4806 
 485   0.0000       1.493762        40.6473 
 486   0.0000       1.500780        40.8383 
 487   0.0000       1.505101        40.9559 
 488   0.0000       1.510409        41.1003 
 489   0.0000       1.515086        41.2276 
 490   0.0000       1.519050        41.3355 
 491   0.0000       1.523840        41.4658 
 492   0.0000       1.531049        41.6620 
 493   0.0000       1.535269        41.7768 
 494   0.0000       1.539519        41.8924 
 495   0.0000       1.545806        42.0635 
 496   0.0000       1.554899        42.3109 
 497   0.0000       1.559856        42.4459 
 498   0.0000       1.564933        42.5840 
 499   0.0000       1.568366        42.6774 
 500   0.0000       1.576700        42.9042 
 501   0.0000       1.578777        42.9607 
 502   0.0000       1.582550        43.0634 
 503   0.0000       1.591493        43.3067 
 504   0.0000       1.595662        43.4202 
 505   0.0000       1.603832        43.6425 
 506   0.0000       1.606084        43.7038 
 507   0.0000       1.608797        43.7776 
 508   0.0000       1.611914        43.8624 
 509   0.0000       1.615623        43.9633 
 510   0.0000       1.621020        44.1102 
 511   0.0000       1.624962        44.2175 
 512   0.0000       1.626845        44.2687 
 513   0.0000       1.628979        44.3268 
 514   0.0000       1.635590        44.5067 
 515   0.0000       1.640330        44.6357 
 516   0.0000       1.643434        44.7201 
 517   0.0000       1.647687        44.8359 
 518   0.0000       1.650980        44.9255 
 519   0.0000       1.654163        45.0121 
 520   0.0000       1.659960        45.1698 
 521   0.0000       1.661697        45.2171 
 522   0.0000       1.666023        45.3348 
 523   0.0000       1.667246        45.3681 
 524   0.0000       1.671919        45.4952 
 525   0.0000       1.675170        45.5837 
 526   0.0000       1.680459        45.7276 
 527   0.0000       1.681822        45.7647 
 528   0.0000       1.692926        46.0669 
 529   0.0000       1.694341        46.1054 
 530   0.0000       1.699456        46.2446 
 531   0.0000       1.699681        46.2507 
 532   0.0000       1.704319        46.3769 
 533   0.0000       1.711358        46.5684 
 534   0.0000       1.715365        46.6775 
 535   0.0000       1.715687        46.6862 
 536   0.0000       1.720866        46.8272 
 537   0.0000       1.728153        47.0254 
 538   0.0000       1.734046        47.1858 
 539   0.0000       1.742457        47.4147 
 540   0.0000       1.742888        47.4264 
 541   0.0000       1.748708        47.5848 
 542   0.0000       1.751483        47.6603 
 543   0.0000       1.753804        47.7234 
 544   0.0000       1.755849        47.7791 
 545   0.0000       1.759564        47.8802 
 546   0.0000       1.767425        48.0941 
 547   0.0000       1.772893        48.2429 
 548   0.0000       1.785287        48.5801 
 549   0.0000       1.786530        48.6139 
 550   0.0000       1.790790        48.7299 
 551   0.0000       1.797024        48.8995 
 552   0.0000       1.803263        49.0693 
 553   0.0000       1.803718        49.0817 
 554   0.0000       1.808366        49.2081 
 555   0.0000       1.811903        49.3044 
 556   0.0000       1.814394        49.3722 
 557   0.0000       1.825834        49.6835 
 558   0.0000       1.829484        49.7828 
 559   0.0000       1.835065        49.9347 
 560   0.0000       1.836706        49.9793 
 561   0.0000       1.843417        50.1619 
 562   0.0000       1.848183        50.2916 
 563   0.0000       1.853957        50.4487 
 564   0.0000       1.860651        50.6309 
 565   0.0000       1.866022        50.7770 
 566   0.0000       1.875854        51.0446 
 567   0.0000       1.881402        51.1956 
 568   0.0000       1.892251        51.4908 
 569   0.0000       1.901431        51.7406 
 570   0.0000       1.907110        51.8951 
 571   0.0000       1.910411        51.9849 
 572   0.0000       1.916771        52.1580 
 573   0.0000       1.918144        52.1953 
 574   0.0000       1.921816        52.2953 
 575   0.0000       1.930531        52.5324 
 576   0.0000       1.937653        52.7262 
 577   0.0000       1.945018        52.9266 
 578   0.0000       1.946591        52.9694 
 579   0.0000       1.949305        53.0433 
 580   0.0000       1.954498        53.1846 
 581   0.0000       1.955979        53.2249 
 582   0.0000       1.968941        53.5776 
 583   0.0000       1.973735        53.7081 
 584   0.0000       1.976060        53.7713 
 585   0.0000       1.980982        53.9053 
 586   0.0000       1.989044        54.1246 
 587   0.0000       1.995482        54.2998 
 588   0.0000       2.000490        54.4361 
 589   0.0000       2.002780        54.4984 
 590   0.0000       2.011384        54.7325 
[...]
  68   8.184     151.5   0.006535   0.005751   2.235703   0.708631     0.09 (  54->  83)    0.09 (  59->  83)    0.05 (  74->  85)
  69   8.208     151.1   0.000102   0.000028   0.552207   0.240337     0.10 (  78->  99)    0.10 (  76->  87)    0.10 (  78->  93)
  70   8.216     150.9   0.017267   0.017152  -3.183411  -3.100653     0.09 (  74->  85)    0.05 (  57->  82)    0.04 (  56->  82)
  71   8.232     150.6   0.003500   0.003158  -4.961528  -4.666826     0.12 (  76->  87)    0.06 (  77->  90)    0.06 (  76->  93)
  72   8.245     150.4   0.009053   0.008298  -10.830584  -8.412719     0.09 (  76->  87)    0.06 (  80->  93)    0.06 (  76->  93)
  73   8.299     149.4   0.066676   0.064951  71.337019  70.217782     0.09 (  75->  86)    0.09 (  74->  85)    0.04 (  67->  84)
  74   8.322     149.0   0.007874   0.008119   5.456000   5.469181     0.44 (  79->  85)    0.14 (  76->  85)    0.07 (  78->  85)
  75   8.330     148.8   0.001528   0.001612  -5.506663  -5.140449     0.08 (  80-> 102)    0.06 (  80-> 104)    0.05 (  52->  83)
  76   8.350     148.5   0.049321   0.047773  -127.618534  -126.292899     0.08 (  52->  83)    0.05 (  75->  86)    0.04 (  52->  82)
  77   8.373     148.1   0.014281   0.013077   5.456523   6.033857     0.25 (  58->  82)    0.14 (  62->  85)    0.04 (  51->  82)
  78   8.396     147.7   0.105551   0.102018  67.793731  66.712749     0.17 (  79->  97)    0.10 (  79-> 100)    0.07 (  79-> 109)
  79   8.433     147.0   0.010071   0.009005  -39.686279  -33.447223     0.14 (  81-> 106)    0.04 (  81-> 105)    0.03 (  78-> 102)
  80   8.477     146.3   0.011557   0.011726  -21.497920  -20.171675     0.05 (  63->  82)    0.05 (  74->  83)    0.04 (  74->  85)
  81   8.502     145.8   0.086101   0.083755  160.519881  158.424482     0.05 (  63->  82)    0.04 (  78-> 103)    0.04 (  74->  83)
  82   8.514     145.6   0.027033   0.024017  32.356843  30.697839     0.06 (  80-> 104)    0.06 (  80-> 107)    0.06 (  81-> 108)
  83   8.526     145.4   0.005908   0.005946  -9.539683  -10.488816     0.06 (  74->  83)    0.05 (  78->  92)    0.04 (  63->  82)
  84   8.553     145.0   0.017357   0.014552  17.273609  14.026656     0.12 (  51->  82)    0.03 (  67->  86)    0.03 (  62->  85)
  85   8.574     144.6   0.075089   0.067857  11.744094  10.410273     0.05 (  74->  83)    0.04 (  51->  82)    0.04 (  75->  88)
  86   8.610     144.0   0.052607   0.048771  12.418518  14.495932     0.17 (  81-> 112)    0.06 (  81-> 115)    0.04 (  81-> 107)
  87   8.631     143.7   0.030956   0.027268  -28.475532  -27.191148     0.07 (  79-> 107)    0.05 (  79->  92)    0.04 (  78-> 103)
  88   8.661     143.2   0.004590   0.004518  -17.723225  -17.247257     0.06 (  79->  93)    0.04 (  79-> 106)    0.03 (  78-> 101)
  89   8.684     142.8   0.311263   0.292188  79.230670  75.371619     0.11 (  75->  86)    0.07 (  56->  82)    0.07 (  75->  88)
  90   8.689     142.7   0.047275   0.045639  -11.032756  -11.902527     0.18 (  75->  88)    0.05 (  79->  97)    0.05 (  79-> 100)
  91   8.700     142.5   0.075465   0.067578  -54.501468  -52.783228     0.08 (  75->  88)    0.06 (  79-> 100)    0.06 (  75->  86)
  92   8.735     141.9   0.000911   0.000636  -6.539629  -5.489362     0.13 (  56->  82)    0.11 (  64->  86)    0.11 (  67->  86)
  93   8.751     141.7   0.011190   0.009682  -79.492905  -72.634872     0.11 (  77-> 103)    0.08 (  78-> 103)    0.07 (  78-> 106)
  94   8.773     141.3   0.016426   0.015256   2.332114   1.490025     0.04 (  72->  82)    0.04 (  56->  82)    0.04 (  67->  86)
  95   8.782     141.2   0.010370   0.008780  -13.975019  -10.804431     0.06 (  79-> 105)    0.05 (  79-> 111)    0.05 (  79-> 104)
  96   8.794     141.0   0.005305   0.004828   5.628783   5.095728     0.32 (  72->  82)    0.12 (  69->  82)    0.05 (  72->  83)
  97   8.807     140.8   0.017587   0.016251  23.937612  22.426075     0.06 (  80-> 108)    0.04 (  80-> 106)    0.03 (  80-> 112)
  98   8.822     140.5   0.018098   0.016420  -12.992099  -13.010033     0.06 (  75->  90)    0.05 (  80-> 112)    0.04 (  81-> 116)
  99   8.834     140.3   0.157827   0.141525  78.117735  68.487640     0.04 (  81-> 115)    0.04 (  75->  88)    0.03 (  77->  92)
 100   8.869     139.8   0.009570   0.008816  -9.927296  -9.151614     0.06 (  80-> 108)    0.04 (  81-> 118)    0.04 (  81-> 108)
 101   8.919     139.0   0.016486   0.014093  12.194458  11.484586     0.24 (  73->  91)    0.10 (  73->  94)    0.04 (  76->  89)
 102   8.926     138.9   0.002668   0.002949  10.979509  11.001724     0.11 (  62->  85)    0.11 (  73->  91)    0.08 (  69->  85)
 103   8.930     138.8   0.008166   0.007584  -4.818670  -4.241549     0.13 (  76->  89)    0.06 (  62->  85)    0.03 (  69->  85)
 104   8.961     138.4   0.001952   0.001508   3.294562   2.917001     0.35 (  81->  87)    0.04 (  73->  83)    0.04 (  81->  88)
 105   8.964     138.3   0.005155   0.004281  -10.242272  -9.598725     0.23 (  81->  87)    0.10 (  73->  83)    0.05 (  54->  83)
 106   8.973     138.2   0.004944   0.004331  -7.479729  -7.020544     0.09 (  81->  87)    0.04 (  75->  84)    0.03 (  80-> 112)
 107   8.999     137.8   0.046372   0.041951  -32.379969  -29.703193     0.14 (  75->  90)    0.05 (  80-> 112)    0.05 (  80-> 107)
 108   9.019     137.5   0.015208   0.015657  53.218412  53.947553     0.21 (  71->  91)    0.10 (  71->  94)    0.06 (  70->  91)
 109   9.025     137.4   0.002365   0.002423   4.455273   3.662426     0.14 (  75->  84)    0.11 (  69->  84)    0.10 (  69->  83)
 110   9.059     136.9   0.041687   0.037535  -3.862081  -2.519178     0.05 (  78->  85)    0.04 (  75->  88)    0.03 (  76->  89)
 111   9.076     136.6   0.008963   0.008166   0.510922   1.464351     0.09 (  61->  84)    0.07 (  71->  83)    0.07 (  66->  84)
 112   9.087     136.4   0.013085   0.011645  -16.050776  -14.814879     0.23 (  78->  85)    0.21 (  77->  85)    0.14 (  76->  85)
 113   9.097     136.3   0.014144   0.013667  -32.108532  -31.080678     0.07 (  78->  85)    0.06 (  76->  85)    0.06 (  77->  85)
 114   9.112     136.1   0.012591   0.009994  -15.573208  -14.401808     0.05 (  63->  85)    0.04 (  69->  83)    0.03 (  62->  85)
 115   9.131     135.8   0.030417   0.027906   1.874900   1.399963     0.06 (  78-> 100)    0.06 (  78->  97)    0.05 (  79->  86)
 116   9.142     135.6   0.030403   0.026207  -9.412610  -9.107356     0.05 (  79->  86)    0.04 (  76->  86)    0.03 (  78-> 100)
 117   9.154     135.4   0.001331   0.001387   3.295414   3.192953     0.08 (  80-> 115)    0.06 (  79->  86)    0.05 (  80-> 112)
 118   9.172     135.2   0.005876   0.004763  -15.434094  -13.964529     0.09 (  70->  87)    0.03 (  71->  87)    0.03 (  79-> 107)
 119   9.194     134.9   0.007646   0.007662   9.372869   5.912400     0.09 (  68->  83)    0.06 (  68->  91)    0.04 (  70->  84)
 120   9.204     134.7   0.006069   0.005768   9.176397   8.452065     0.08 (  68->  91)    0.04 (  79->  94)    0.04 (  75->  84)
 121   9.210     134.6   0.001359   0.001138  -2.409528  -2.295656     0.07 (  79->  86)    0.05 (  75->  84)    0.03 (  68->  91)
 122   9.221     134.5   0.010271   0.009008  -9.008652  -9.366782     0.05 (  71->  87)    0.04 (  70->  87)    0.04 (  57->  85)
 123   9.223     134.4   0.010256   0.007576   6.304529   4.567834     0.07 (  70->  87)    0.04 (  79->  86)    0.03 (  71->  87)
 124   9.239     134.2   0.001020   0.000418   5.818996   3.731646     0.09 (  80-> 116)    0.09 (  75->  90)    0.08 (  80-> 115)
 125   9.251     134.0   0.002169   0.001675  -6.350804  -3.072278     0.04 (  51->  83)    0.04 (  80-> 116)    0.03 (  62->  86)
 126   9.263     133.8   0.013511   0.011230  19.120477  17.347587     0.21 (  62->  86)    0.04 (  58->  85)    0.04 (  62->  85)
 127   9.280     133.6   0.012950   0.010151  -22.316110  -21.543565     0.08 (  68->  91)    0.05 (  62->  86)    0.04 (  58->  85)
 128   9.298     133.3   0.007930   0.007099  -5.564585  -2.197934     0.13 (  81->  89)    0.04 (  79->  88)    0.03 (  63->  86)
 129   9.300     133.3   0.013296   0.010413  -27.151135  -24.860086     0.12 (  68->  91)    0.04 (  68->  94)    0.03 (  79->  94)
 130   9.309     133.2   0.059583   0.046697  -6.640844  -7.162340     0.05 (  72->  87)    0.04 (  66->  87)    0.04 (  61->  87)
 131   9.327     132.9   0.013991   0.012080  21.176374  19.573403     0.14 (  70->  82)    0.06 (  71->  82)    0.05 (  79->  86)
 132   9.337     132.8   0.016010   0.014921   2.567444   2.444861     0.07 (  70->  87)    0.03 (  54->  84)    0.03 (  71->  84)
 133   9.357     132.5   0.037133   0.033276  -17.622720  -16.754638     0.04 (  63->  85)    0.04 (  70->  87)    0.04 (  79->  86)
 134   9.361     132.5   0.007187   0.007077   8.579910   8.682226     0.09 (  80->  87)    0.04 (  73->  89)    0.03 (  71->  82)
 135   9.374     132.3   0.004336   0.003780   1.005187   1.072173     0.62 (  80->  87)    0.05 (  80->  88)    0.04 (  81->  87)
 136   9.382     132.1   0.009388   0.009020  -22.054195  -21.364089     0.15 (  57->  85)    0.03 (  64->  88)    0.03 (  67->  88)
 137   9.391     132.0   0.001975   0.001795   1.292430   2.094727     0.07 (  57->  85)    0.03 (  73->  89)    0.02 (  64->  82)
 138   9.415     131.7   0.018282   0.016563  19.657150  17.439540     0.06 (  63->  85)    0.03 (  74->  88)    0.03 (  75->  92)
 139   9.424     131.6   0.028604   0.022580  -65.447840  -58.549542     0.09 (  74->  88)    0.05 (  73->  89)    0.04 (  75->  92)
 140   9.445     131.3   0.007763   0.007134  -0.227192  -0.230512     0.13 (  56->  85)    0.07 (  74->  86)    0.04 (  74->  88)
 141   9.480     130.8   0.051588   0.047372  -61.019005  -56.690995     0.09 (  73->  94)    0.03 (  78->  91)    0.03 (  73->  96)
 142   9.496     130.6   0.018499   0.016880   9.322063   8.526168     0.07 (  77->  95)    0.04 (  78->  95)    0.04 (  81->  98)
 143   9.513     130.3   0.009513   0.007687  -8.662109  -6.789121     0.06 (  67->  84)    0.05 (  72->  87)    0.04 (  64->  84)
 144   9.523     130.2   0.097971   0.088559  25.507287  24.552128     0.05 (  72->  87)    0.04 (  70->  87)    0.03 (  79->  88)
 145   9.528     130.1   0.008407   0.006645  23.346274  20.776392     0.08 (  79->  86)    0.06 (  81->  89)    0.06 (  73->  94)
 146   9.543     129.9   0.006128   0.004355  -19.351138  -16.478057     0.18 (  73->  94)    0.06 (  71->  94)    0.06 (  73->  91)
 147   9.557     129.7   0.012796   0.012170   3.738477   4.108734     0.06 (  71->  96)    0.05 (  79->  88)    0.04 (  81->  89)
 148   9.573     129.5   0.099494   0.085166  -41.776969  -37.871577     0.07 (  72->  87)    0.04 (  71->  87)    0.04 (  66->  87)
 149   9.575     129.5   0.003403   0.002233  -3.084493  -3.047848     0.10 (  80-> 115)    0.04 (  79->  88)    0.03 (  81-> 115)
 150   9.596     129.2   0.052671   0.042677  25.039136  18.022784     0.14 (  72->  87)    0.04 (  78-> 111)    0.03 (  69->  87)
 151   9.608     129.0   0.003611   0.003248  -9.083782  -10.124121     0.04 (  80->  89)    0.03 (  62->  84)    0.03 (  46->  82)
 152   9.616     128.9   0.007856   0.007265  -6.877333  -5.839648     0.05 (  80->  89)    0.04 (  79->  88)    0.03 (  76-> 109)
 153   9.623     128.8   0.021315   0.017980  -14.940439  -12.350486     0.03 (  79->  88)    0.03 (  76->  93)    0.03 (  78->  92)
 154   9.647     128.5   0.005877   0.006269   5.087078   5.284384     0.03 (  80-> 118)    0.03 (  75->  92)    0.02 (  51->  84)
 155   9.648     128.5   0.035943   0.031739   4.994724   4.893251     0.04 (  79->  96)    0.04 (  79-> 114)    0.02 (  76-> 100)
 156   9.663     128.3   0.008673   0.008073  10.379943   9.856009     0.18 (  73->  82)    0.09 (  73->  97)    0.07 (  73->  94)
 157   9.674     128.2   0.015671   0.013697  13.930318  12.927458     0.04 (  71->  82)    0.04 (  66->  83)    0.03 (  73->  97)
 158   9.692     127.9   0.007384   0.007824  -3.437487  -2.239879     0.09 (  77->  98)    0.06 (  80->  89)    0.04 (  75->  95)
 159   9.697     127.9   0.003801   0.003870  -5.030503  -6.661269     0.03 (  79->  88)    0.03 (  75->  92)    0.03 (  63->  86)
 160   9.709     127.7   0.041156   0.036447  57.158164  56.427746     0.05 (  80->  89)    0.03 (  69->  85)    0.02 (  71->  89)
 161   9.725     127.5   0.011703   0.009834   2.853565   1.987838     0.09 (  71->  89)    0.04 (  81-> 123)    0.04 (  74->  86)
 162   9.749     127.2   0.027766   0.025000  32.321923  30.878000     0.10 (  80->  89)    0.05 (  73->  97)    0.04 (  74->  86)
 163   9.766     127.0   0.004166   0.003141  14.401211  12.653666     0.20 (  73->  97)    0.05 (  73->  96)    0.04 (  71->  97)
 164   9.770     126.9   0.003667   0.002773  23.237525  20.662002     0.09 (  71->  82)    0.04 (  73->  97)    0.04 (  73->  82)
 165   9.775     126.8   0.001651   0.001746  -4.133319  -4.166447     0.12 (  74->  84)    0.12 (  74->  83)    0.10 (  75->  92)
 166   9.782     126.8   0.009400   0.006598  -35.973260  -30.306053     0.03 (  73->  97)    0.03 (  76-> 100)    0.03 (  74->  86)
 167   9.807     126.4   0.011492   0.009028  -6.435196  -5.506757     0.04 (  81-> 124)    0.03 (  76->  99)    0.03 (  76-> 106)
 168   9.815     126.3   0.033864   0.029929  104.442929  98.379587     0.06 (  47->  82)    0.05 (  65->  83)    0.03 (  68->  83)
 169   9.818     126.3   0.020115   0.018815  -28.781573  -25.586806     0.10 (  80->  89)    0.04 (  81->  89)    0.03 (  73->  97)
 170   9.825     126.2   0.018725   0.016711  37.659100  33.980161     0.06 (  47->  82)    0.04 (  71->  97)    0.03 (  68->  83)
 171   9.834     126.1   0.004517   0.004327  20.801129  19.950942     0.07 (  81-> 118)    0.06 (  81-> 116)    0.04 (  81-> 119)
 172   9.839     126.0   0.004480   0.004186   1.796430   1.893430     0.08 (  68->  83)    0.06 (  71->  97)    0.04 (  65->  83)
 173   9.848     125.9   0.012753   0.011116  -13.407895  -12.092409     0.05 (  76-> 100)    0.05 (  79->  92)    0.02 (  81-> 118)
 174   9.865     125.7   0.025027   0.023519  10.879230   8.434035     0.07 (  71->  97)    0.03 (  70->  97)    0.03 (  66->  89)
 175   9.876     125.5   0.037780   0.034650  46.007536  44.099265     0.09 (  74->  84)    0.05 (  74->  88)    0.04 (  75->  84)
 176   9.884     125.4   0.021450   0.019143  30.297488  27.218306     0.08 (  72->  93)    0.04 (  72->  92)    0.03 (  72->  95)
 177   9.900     125.2   0.031916   0.026358  -106.316799  -98.209603     0.05 (  81->  91)    0.04 (  71->  97)    0.02 (  73->  82)
 178   9.904     125.2   0.002453   0.002444   9.694696   9.393778     0.11 (  79-> 110)    0.05 (  79-> 113)    0.04 (  79-> 108)
 179   9.918     125.0   0.006467   0.005190  26.023208  23.484309     0.08 (  73->  82)    0.07 (  72->  89)    0.04 (  72-> 100)
 180   9.926     124.9   0.062405   0.051135  45.355270  38.007416     0.19 (  71->  82)    0.07 (  72->  89)    0.06 (  73->  82)
 181   9.940     124.7   0.000652   0.000611   2.949619   3.146700     0.03 (  64->  83)    0.03 (  81->  91)    0.02 (  79->  92)
 182   9.949     124.6   0.024839   0.020392  -21.547818  -19.730660     0.24 (  81->  91)    0.04 (  77->  87)    0.03 (  78->  86)
 183   9.966     124.4   0.007093   0.006013  -0.120413   0.030148     0.06 (  78->  86)    0.05 (  74->  84)    0.04 (  77->  86)
 184   9.979     124.2   0.009079   0.007300  44.613647  39.822190     0.06 (  63->  86)    0.05 (  81->  91)    0.03 (  80-> 116)
 185   9.984     124.2   0.033777   0.030166  -33.816504  -34.214895     0.10 (  77->  87)    0.07 (  78->  87)    0.05 (  78->  86)
 186   9.999     124.0   0.020850   0.017759  -10.111158  -9.571266     0.06 (  78->  86)    0.05 (  76->  86)    0.05 (  77->  86)

sTD-DFT done

Total run time:       25.126 sec

           *** ORCA-CIS/TD-DFT FINISHED WITHOUT ERROR ***


-------------------------------------------------------------------------------
                          DFT DISPERSION CORRECTION                            
                                                                               
                              DFTD3 V3.1  Rev 1                                
                              USING zero damping                               
-------------------------------------------------------------------------------
The omegaB97X-D3 functional is recognized. Fit by Chai et al.
Active option DFTDOPT                   ...         3   

molecular C6(AA) [au] = 43442.876584 


            DFT-D V3
 parameters
 s6 scaling factor         :     1.0000 
 rs6 scaling factor        :     1.2810 
 s8 scaling factor         :     1.0000 
 rs8 scaling factor        :     1.0940 
 Damping factor alpha6     :    14.0000 
 Damping factor alpha8     :    16.0000 
 ad hoc parameters k1-k3   :    16.0000     1.3333    -4.0000 

 Edisp/kcal,au: -16.053310119194  -0.025582575356 
 E6   /kcal   :  -7.328302467 
 E8   /kcal   :  -8.725007652 
 % E8         :  54.350209317 

-------------------------   ----------------
Dispersion correction           -0.025582575
-------------------------   ----------------


-------------------------   --------------------
FINAL SINGLE POINT ENERGY     -1794.976986130927
-------------------------   --------------------


                            ***************************************
                            *     ORCA property calculations      *
                            ***************************************

                                    ---------------------
                                    Active property flags
                                    ---------------------
   (+) Dipole Moment
   (+) Quadrupole Moment


------------------------------------------------------------------------------
                       ORCA ELECTRIC PROPERTIES CALCULATION
------------------------------------------------------------------------------

Dipole Moment Calculation                       ... on
Quadrupole Moment Calculation                   ... on
Polarizability Calculation                      ... off
GBWName                                         ... total_job2.gbw
Electron density file                           ... total_job2.scfp.tmp

-------------
DIPOLE MOMENT
-------------
                                X             Y             Z
Electronic contribution:    -76.29534       9.21275       8.44779
Nuclear contribution   :     75.62593      -7.38328      -9.32652
                        -----------------------------------------
Total Dipole Moment    :     -0.66941       1.82946      -0.87873
                        -----------------------------------------
Magnitude (a.u.)       :      2.13711
Magnitude (Debye)      :      5.43209


------------------------
QUADRUPOLE MOMENT (A.U.)
------------------------

                XX           YY           ZZ           XY           XZ           YZ
  NUC     34848.88169   2437.74649    527.61222  -1632.44271    654.43896     94.63613
  EL     -34949.24701  -2583.04631   -687.65252   1621.87639   -646.94233    -92.75668
  TOT      -100.36532   -145.29982   -160.04030    -10.56632      7.49663      1.87945

--------------------------------------------------------------------------
[[11453,1],4]: A high-performance Open MPI point-to-point messaging module
was unable to find any relevant network interfaces:

Module: OpenFabrics (openib)
  Host: cx1-103-16-2

Another transport will be used instead, although this may result in
lower performance.
--------------------------------------------------------------------------

Timings for individual modules:

Sum of individual times         ...      158.884 sec (=   2.648 min)
GTO integral calculation        ...        5.829 sec (=   0.097 min)   3.7 %
SCF iterations                  ...      125.682 sec (=   2.095 min)  79.1 %
CIS module                      ...       27.372 sec (=   0.456 min)  17.2 %



                             ****ORCA TERMINATED NORMALLY****
TOTAL RUN TIME: 0 days 0 hours 10 minutes 21 seconds 183 msec
