   54
Geometry Step: 1638
    C     -7.36318180      0.84169727      2.30825520      4.11527128
    C     -6.49361775      0.50373549      1.27451284      4.08007722
    C     -7.00652666      0.34027570     -0.02650808      4.03013395
    C     -8.40053407      0.53875259     -0.23381413      3.86759893
    C     -9.28013984      0.87250984      0.80735692      4.16587882
    C     -8.73940645      1.01984410      2.08215140      4.06793106
    C     -6.43450278      0.02763013     -1.32723387      4.04292102
    C     -7.51819412      0.07359853     -2.25415428      3.86840967
    N     -8.68733642      0.36394420     -1.57638920      5.17540788
    C     -7.35835050     -0.12892506     -3.63282143      4.16206978
    C     -6.06738763     -0.36959159     -4.09859612      4.07335708
    C     -4.98266067     -0.41898967     -3.21454399      4.13709281
    C     -5.12969966     -0.24381418     -1.82472058      3.97535764
    H     -3.99195811     -0.62479256     -3.61346199      0.91569239
    H     -9.60050460      0.46653254     -2.00172316      0.78479112
    H     -5.89646197     -0.52478467     -5.16002344      0.91781453
    H     -5.43549621      0.36554154      1.47632999      0.89521463
    H    -10.34158559      1.01495501      0.62275925      0.91883179
    H     -9.38948055      1.27810750      2.91396001      0.92243667
    H     -6.97226447      0.96766532      3.31418600      0.91922588
    S      0.94682906     -0.05954168     -0.79983769      6.07213514
    C      2.10323920     -0.34929796      0.51782259      3.79735655
    N      1.51879849     -0.72023307      1.65607065      5.20170005
    N      0.16105934     -0.79963780      1.57129139      5.15035490
    C     -0.31860802     -0.49285065      0.37293008      3.84317407
    C     -1.72292358     -0.49910034      0.02462447      3.83148033
    N     -2.70129532     -0.82189451      0.86025198      5.16666343
    N     -3.94294728     -0.74967661      0.29340010      5.18412180
    C     -3.94229055     -0.36804119     -0.97399496      3.80509489
    S     -2.29629604     -0.06865033     -1.59603317      6.07253599
    C      9.40324629      1.01408247     -1.09260666      4.19557242
    C      8.24493840      0.59017750     -0.37120981      3.69400214
    C      7.09009848      0.53160726     -1.15090759      4.10479607
    S      7.44665372      0.99679011     -2.80980775      5.96816027
    C      9.12836241      1.26201524     -2.41620724      4.09637920
    C      5.84190484      0.21710747     -0.52674484      3.93466047
    C      5.82657222     -0.15648415      0.81513728      4.11084812
    C      7.12536316     -0.37370108      1.58998350      3.64250390
    O      8.26765712      0.33034327      0.95588301      6.33808932
    C      4.51630837     -0.39282867      1.30432586      4.13235531
    C      3.52347989     -0.19301940      0.35173627      4.00316352
    S      4.22564632      0.29883138     -1.19248621      5.98529899
    C      7.49049029     -1.87720981      1.60394495      4.30817402
    H     10.38675898      1.12419079     -0.65096232      0.88598185
    H      4.29240921     -0.70163950      2.31942099      0.89169520
    H      6.70934112     -2.45383269      2.09336927      0.90988420
    H      7.60345088     -2.24874074      0.58823524      0.90715333
    H      8.42536586     -2.04059958      2.13471886      0.90414693
    C      7.04141624      0.18301783      3.02004193      4.29919518
    H      6.79385613      1.24134119      3.00635429      0.90322535
    H      6.27725367     -0.33913749      3.59032857      0.91433563
    H      7.99295370      0.06106333      3.53142223      0.90447101
    H     -8.20676045     -0.08864215     -4.31011986      0.91529280
    H      9.83695769      1.57969954     -3.17009676      0.89048347
