   65
Geometry Step: 2508
    C      7.80444037      2.65998737     -2.04593977      4.11619181
    C      7.16307382      1.75555227     -1.20243140      4.08642552
    C      7.93577819      0.82868166     -0.47892880      4.03171798
    C      9.34674558      0.82549635     -0.66647518      3.86685466
    C      9.99579448      1.74120290     -1.50866623      4.16476155
    C      9.20305483      2.66224724     -2.18991746      4.07236747
    C      7.63826639     -0.25900696      0.43889041      4.06403112
    C      8.88368409     -0.88681099      0.72604953      3.86466917
    N      9.89767317     -0.20482341      0.07595573      5.17720940
    C      8.98981624     -2.03423008      1.52735441      4.17502607
    C      7.80663570     -2.56956987      2.03389151      4.07076367
    C      6.56861046     -1.96392276      1.77832252      4.14438872
    C      6.45207884     -0.79160860      1.00892562      3.93982808
    H      5.67037580     -2.39524247      2.21336797      0.91538206
    H     10.87864274     -0.45485142      0.09740251      0.78561229
    H      7.84248989     -3.46569413      2.64744156      0.92030689
    H      6.07974309      1.76348220     -1.12616571      0.91155244
    H     11.07541417      1.72502910     -1.63234063      0.91908770
    H      9.67073676      3.38572077     -2.85245018      0.92281417
    H      7.21329702      3.37836246     -2.60725189      0.92060865
    N      0.61822106     -0.74796332      0.47114609      5.35276846
    C      1.28928943      0.46025122      0.59592171      3.85360159
    C      0.48149862      1.58713074      0.58636841      4.15416294
    S     -1.19438824      1.13341617      0.41693287      5.99068655
    C     -0.69213169     -0.57367604      0.36794211      3.76904121
    C      2.73673494      0.45624416      0.72089767      3.80031458
    S      3.64462241     -1.06555941      0.71161138      6.01255913
    C      5.14003960     -0.14784875      0.86793626      4.00688057
    C      4.83557011      1.20040952      0.93647411      3.98213087
    N      3.50236167      1.53101319      0.85123010      5.32735956
    H      0.81279552      2.61346454      0.67368899      0.88186525
    H      5.57271332      1.98592814      1.08795215      0.91638122
    C     -6.91620356      1.16358889      0.99378996      4.09320982
    C     -7.51184117      2.40747482      1.19205931      4.07439882
    C     -6.91070726      3.56405150      0.69090126      4.07599996
    C     -5.69777138      3.47369575      0.00534365      4.07641381
    C     -5.09504428      2.23262637     -0.18861196      4.08469406
    C     -5.70489915      1.05821472      0.28619494      3.98129752
    C     -5.02014949     -0.24804120      0.08748782      3.84804037
    C     -5.75252152     -1.49389310     -0.16680377      3.84324131
    N     -5.15116542     -2.68204342     -0.16900016      5.29532442
    C     -3.78217358     -2.68485219      0.00310667      3.85314566
    C     -3.05531989     -1.44824834      0.12704698      3.88825735
    N     -3.69031686     -0.23461678      0.19208264      5.28086602
    C     -2.94700071     -3.80238246      0.02051668      4.17795069
    S     -1.28330263     -3.32594196      0.17989633      5.90030860
    C     -1.66573307     -1.62134143      0.22965131      4.04547307
    C     -7.20923988     -1.49289577     -0.48556084      3.98141251
    C     -8.03159826     -2.51269625      0.02179518      4.08524036
    C     -9.39151074     -2.54386058     -0.28197035      4.07695689
    C     -9.94717139     -1.56742237     -1.11054582      4.07712194
    C     -9.13404047     -0.56422220     -1.64225246      4.07440812
    C     -7.77580601     -0.52474365     -1.33395222      4.09364604
    H     -7.14721993      0.25017256     -1.76571347      0.91749043
    H     -9.55911373      0.18840202     -2.30127123      0.92004301
    H    -11.00746500     -1.59247487     -1.34822800      0.92099201
    H    -10.01919990     -3.33249447      0.12538977      0.92069982
    H     -7.59478439     -3.27354204      0.66355808      0.91218677
    H     -4.14751486      2.15868080     -0.71700983      0.91183545
    H     -5.22019580      4.37285895     -0.37569854      0.92010963
    H     -7.38081194      4.53216042      0.84282989      0.92074307
    H     -8.44647469      2.47517811      1.74279181      0.91995891
    H     -7.38174456      0.27227344      1.40665724      0.91655888
    H      9.95262855     -2.49451702      1.73011692      0.91632490
    H     -3.23856541     -4.84186005     -0.06053417      0.87829841
