   47
Geometry Step: 2234
    C     -5.29946575      2.96521058     -1.51440560      4.11334018
    C     -4.86946461      1.83313755     -0.82680037      4.08062864
    C     -5.80619892      0.83895691     -0.48766785      4.03349798
    C     -7.17332392      1.05472514     -0.82088456      3.86507705
    C     -7.60881534      2.19207032     -1.51826461      4.16254519
    C     -6.64948343      3.13932687     -1.86686920      4.06827882
    C     -5.75056267     -0.42330384      0.23205861      4.05588003
    C     -7.09711954     -0.87945916      0.33357695      3.86642286
    N     -7.92917925      0.00584354     -0.32774387      5.17472573
    C     -7.45697847     -2.04273314      1.03055026      4.16159077
    C     -6.43686046     -2.75594472      1.65654585      4.07357270
    C     -5.10117895     -2.34278818      1.55730403      4.12312650
    C     -4.72422996     -1.19736114      0.83264796      3.97505001
    H     -4.32359867     -2.93529547      2.03068905      0.90735264
    H     -8.93646137     -0.07499792     -0.39325929      0.78403972
    H     -6.67506309     -3.65495159      2.21803148      0.91666639
    H     -3.82403346      1.74066944     -0.54681511      0.91473036
    H     -8.65738660      2.33192932     -1.76686777      0.91742668
    H     -6.94979395      4.03368693     -2.40607684      0.92087802
    H     -4.57919009      3.73388308     -1.78005502      0.91864048
    S      1.85276536     -0.49232436      0.34236230      6.02163400
    C      2.63926328     -0.02792114     -1.17469427      3.81352519
    N      1.78554382      0.18061472     -2.17267780      5.19380838
    N      0.48164246     -0.00802344     -1.81595135      5.17544626
    C      0.32442167     -0.36125516     -0.54568781      3.83739120
    C     -0.95878837     -0.61713052      0.06716989      3.83837466
    N     -1.11523124     -0.96288785      1.33764389      5.18104109
    N     -2.42410802     -1.15389097      1.68864403      5.18629488
    C     -3.28227474     -0.92966061      0.70444590      3.81073255
    S     -2.48422796     -0.48578005     -0.82048548      6.03040185
    S     12.14678414      0.13079127      0.73430259      6.08346374
    C     10.37176395      0.01897046      0.68367488      3.96168085
    C      9.71916327     -0.33304912      1.82023727      3.96214358
    S     10.68660452     -0.65697615      3.27782590      6.08256262
    C     12.33534246     -0.33417886      2.51145414      4.01469960
    S      7.94825991     -0.44236525      1.76134352      6.02256475
    C      7.82875750      0.01440816      0.03269670      3.98214573
    S      9.39954874      0.34065785     -0.76688860      6.02765999
    C      6.64073547      0.10550952     -0.61800430      3.97848928
    S      6.50310461      0.55976728     -2.34210610      6.00041917
    C      4.74812070      0.45572142     -2.41711883      4.09092864
    C      4.07727437      0.10363047     -1.28514373      3.97979283
    S      5.06572685     -0.21721937      0.16725312      6.04004026
    H     12.96308280     -1.22917852      2.59458180      0.92745684
    H     12.84276189      0.47301670      3.05270699      0.92745236
    H     -8.49250515     -2.36579086      1.08992094      0.91481428
    H      4.24475622      0.67203987     -3.35369970      0.88156464
