
                                 *****************
                                 * O   R   C   A *
                                 *****************

           --- An Ab Initio, DFT and Semiempirical electronic structure package ---

                  #######################################################
                  #                        -***-                        #
                  #  Department of molecular theory and spectroscopy    #
                  #              Directorship: Frank Neese              #
                  # Max Planck Institute for Chemical Energy Conversion #
                  #                  D-45470 Muelheim/Ruhr              #
                  #                       Germany                       #
                  #                                                     #
                  #                  All rights reserved                #
                  #                        -***-                        #
                  #######################################################


                         Program Version 4.0.0 -  RELEASE  -


 With contributions from (in alphabetic order):
   Daniel Aravena         : Magnetic Properties
   Michael Atanasov       : Ab Initio Ligand Field Theory
   Ute Becker             : Parallelization
   Martin Brehm           : Molecular dynamics
   Dmytro Bykov           : SCF Hessian
   Vijay G. Chilkuri      : MRCI spin determinant printing
   Dipayan Datta          : RHF DLPNO-CCSD density
   Achintya Kumar Dutta   : EOM-CC, STEOM-CC
   Dmitry Ganyushin       : Spin-Orbit,Spin-Spin,Magnetic field MRCI
   Yang Guo               : DLPNO-NEVPT2, CIM, IAO-localization
   Andreas Hansen         : Spin unrestricted coupled pair/coupled cluster methods
   Lee Huntington         : MR-EOM, pCC
   Robert Izsak           : Overlap fitted RIJCOSX, COSX-SCS-MP3, EOM
   Christian Kollmar      : KDIIS, OOCD, Brueckner-CCSD(T), CCSD density
   Simone Kossmann        : Meta GGA functionals, TD-DFT gradient, OOMP2, MP2 Hessian
   Martin Krupicka        : AUTO-CI
   Dagmar Lenk            : GEPOL surface
   Dimitrios Liakos       : Extrapolation schemes; parallel MDCI
   Dimitrios Manganas     : ROCIS; embedding schemes
   Dimitrios Pantazis     : SARC Basis sets
   Taras Petrenko         : DFT Hessian,TD-DFT gradient, ASA, ECA, R-Raman, ABS, FL, XAS/XES, NRVS
   Peter Pinski           : DLPNO-MP2
   Christoph Reimann      : Effective Core Potentials
   Marius Retegan         : Local ZFS, SOC
   Christoph Riplinger    : Optimizer, TS searches, QM/MM, DLPNO-CCSD(T), (RO)-DLPNO pert. Triples
   Tobias Risthaus        : Range-separated hybrids, TD-DFT gradient, RPA, STAB
   Michael Roemelt        : Restricted open shell CIS
   Masaaki Saitow         : Open-shell DLPNO
   Barbara Sandhoefer     : DKH picture change effects
   Kantharuban Sivalingam : CASSCF convergence, NEVPT2, FIC-MRCI
   Georgi Stoychev        : AutoAux
   Boris Wezisla          : Elementary symmetry handling
   Frank Wennmohs         : Technical directorship


 We gratefully acknowledge several colleagues who have allowed us to
 interface, adapt or use parts of their codes:
   Stefan Grimme, W. Hujo, H. Kruse,             : VdW corrections, initial TS optimization,
                  C. Bannwarth                     DFT functionals, gCP, sTDA/sTD-DF
   Ed Valeev                                     : LibInt (2-el integral package), F12 methods
   Garnet Chan, S. Sharma, J. Yang, R. Olivares  : DMRG
   Ulf Ekstrom                                   : XCFun DFT Library
   Mihaly Kallay                                 : mrcc  (arbitrary order and MRCC methods)
   Jiri Pittner, Ondrej Demel                    : Mk-CCSD
   Frank Weinhold                                : gennbo (NPA and NBO analysis)
   Christopher J. Cramer and Donald G. Truhlar   : smd solvation model


 Your calculation uses the libint2 library for the computation of 2-el integrals
 For citations please refer to: http://libint.valeyev.net

 This ORCA versions uses:
   CBLAS   interface :  Fast vector & matrix operations
   LAPACKE interface :  Fast linear algebra routines
   SCALAPACK package :  Parallel linear algebra routines


Your calculation utilizes the atom-pairwise dispersion correction
with the zero-damping scheme (D30)
Cite in your paper:
S.Grimme, J.Antony, S.Ehrlich and H.Krieg, J.Chem.Phys., 132, (2010), 154104 
   

XCFun DFT library Copyright 2009-2010 Ulf Ekstrom and contributors.
See http://admol.org/xcfun for more information. This is free soft-
ware; see the source code for copying conditions. There is ABSOLUTELY
NO WARRANTY; not even for MERCHANTABILITY or FITNESS FOR A PARTICULAR
PURPOSE. For details see the documentation. Scientific users of this 
library should cite U. Ekstrom, L. Visscher, R. Bast, A. J. Thorvald-
sen and K. Ruud; J.Chem.Theor.Comp. 2010, DOI: 10.1021/ct100117s
XCFun Version 0.99 
Your calculation utilizes the basis: def2-TZVP
   F. Weigend and R. Ahlrichs, Phys. Chem. Chem. Phys. 7, 3297 (2005).

Your calculation utilizes the auxiliary basis: def2/J
   F. Weigend, Phys. Chem. Chem. Phys. 8, 1057 (2006).

================================================================================
                                        WARNINGS
                       Please study these warnings very carefully!
================================================================================

Warning: TCutStore was < 0. Adjusted to Thresh (uncritical)
INFO   : Checking CIS options ...

WARNING: CIS/ROCIS methods need fully converged wavefunctions
  ===> : Setting SCFConvForced true
         You can overwrite this default with %scf ConvForced false 


INFO   : the flag for use of LIBINT has been found!

Your calculation utilizes the atom-pairwise dispersion correction
with the zero-damping scheme (D30)
Cite in your paper:
S.Grimme, J.Antony, S.Ehrlich and H.Krieg, J.Chem.Phys., 132, (2010), 154104 
   

XCFun DFT library Copyright 2009-2010 Ulf Ekstrom and contributors.
See http://admol.org/xcfun for more information. This is free soft-
ware; see the source code for copying conditions. There is ABSOLUTELY
NO WARRANTY; not even for MERCHANTABILITY or FITNESS FOR A PARTICULAR
PURPOSE. For details see the documentation. Scientific users of this 
library should cite U. Ekstrom, L. Visscher, R. Bast, A. J. Thorvald-
sen and K. Ruud; J.Chem.Theor.Comp. 2010, DOI: 10.1021/ct100117s
XCFun Version 0.99 
Your calculation utilizes the basis: def2-TZVP
   F. Weigend and R. Ahlrichs, Phys. Chem. Chem. Phys. 7, 3297 (2005).

Your calculation utilizes the auxiliary basis: def2/J
   F. Weigend, Phys. Chem. Chem. Phys. 8, 1057 (2006).

================================================================================
                                        WARNINGS
                       Please study these warnings very carefully!
================================================================================

INFO   : Checking CIS options ...

INFO   : the flag for use of LIBINT has been found!

================================================================================
                                       INPUT FILE
================================================================================
NAME = total.inp
|  1> # 
|  2> !wB97X-D3 def2-TZVP def2/J RIJCOSX Grid5 FinalGrid6 TightSCF
|  3> %pal 
|  4>  nprocs 24
|  5> end
|  6> %tddft
|  7>   Mode sTDDFT
|  8>   nroots 2
|  9>   Ethresh 10.0
| 10>   maxcore 5000
| 11>   triplets true
| 12> end
| 13> * xyz 0 1 
| 14> C 7.47661659 1.40651512 -3.43437363
| 15> C 7.05615018 0.73267689 -2.29025510
| 16> C 8.00599751 0.04284032 -1.51351828
| 17> C 9.36452373 0.05490175 -1.93790761
| 18> C 9.79205732 0.73874785 -3.08624057
| 19> C 8.82640487 1.41532914 -3.82754161
| 20> C 7.95481361 -0.77242557 -0.30924631
| 21> C 9.28902434 -1.22341788 -0.08369186
| 22> N 10.11892440 -0.70307668 -1.05967940
| 23> C 9.64190569 -2.08146794 0.96833525
| 24> C 8.61959118 -2.51283945 1.81106743
| 25> C 7.29935849 -2.08933274 1.61435892
| 26> C 6.93273030 -1.20801853 0.57897352
| 27> H 6.53139773 -2.43572793 2.30215133
| 28> H 11.11312156 -0.87857375 -1.13711320
| 29> H 8.84614450 -3.18396266 2.63469066
| 30> H 6.00871969 0.74639730 -2.00319309
| 31> H 10.83648644 0.73537469 -3.38675162
| 32> H 9.11956097 1.95637730 -4.72348194
| 33> H 6.74738094 1.94163548 -4.03672251
| 34> S 0.60080086 0.77682313 0.26075174
| 35> C 1.68844132 -0.52019317 0.78005629
| 36> N 1.05931489 -1.54673564 1.34026233
| 37> N -0.29477671 -1.38117775 1.40026132
| 38> C -0.72158510 -0.22501084 0.90105756
| 39> C 3.12140098 -0.46560119 0.60294489
| 40> N 3.76141213 0.54992978 0.03843132
| 41> N 5.11771283 0.36948894 -0.02210397
| 42> C 5.53267619 -0.78018267 0.48540020
| 43> S 4.19694590 -1.77162297 1.12595208
| 44> C -4.84546767 0.96208842 0.90399228
| 45> C -3.90241661 1.75234998 0.22250797
| 46> C -2.53946960 1.35852006 0.21524254
| 47> C -2.12387813 0.18359874 0.90032266
| 48> C -3.09731014 -0.61631802 1.56067819
| 49> C -4.46218008 -0.22127219 1.55513353
| 50> N -2.70517129 -1.72063714 2.33718234
| 51> C -3.14294099 -2.92363468 2.16825531
| 52> C -4.00652341 -3.36919952 1.00307467
| 53> N -5.39120919 -0.96282871 2.33014656
| 54> C -6.53522234 -1.35308507 1.87082986
| 55> C -7.00420845 -1.18363006 0.43543952
| 56> N -4.26121038 3.01026732 -0.32530526
| 57> C -5.28486508 3.17854589 -1.09819014
| 58> C -6.16939153 2.06585157 -1.63511753
| 59> N -1.56271965 2.19304186 -0.36444422
| 60> C -1.59201083 2.61444096 -1.58911097
| 61> C -2.57141525 2.14431708 -2.64450018
| 62> C -2.73745881 -3.99924464 3.14294787
| 63> C -7.48622073 -2.07544202 2.79240456
| 64> C -5.62787052 4.57218051 -1.56319072
| 65> C -0.53607942 3.58618957 -2.04884401
| 66> H -2.13578832 -3.59013782 3.94876190
| 67> H -2.16133615 -4.77596155 2.63942080
| 68> H -3.61669311 -4.48103293 3.57151239
| 69> H -3.58120022 -4.25530257 0.53339643
| 70> H -5.00753057 -3.63230962 1.34620741
| 71> H -4.09812994 -2.58551927 0.25523917
| 72> H -0.99477979 4.49832395 -2.43126693
| 73> H 0.13468514 3.84861989 -1.23621236
| 74> H 0.05176156 3.16017694 -2.86228070
| 75> H -3.26192954 2.94333439 -2.91526162
| 76> H -3.15335460 1.29459707 -2.29691858
| 77> H -2.03658790 1.85868746 -3.54983670
| 78> H -6.43811913 2.26338208 -2.67135086
| 79> H -5.67240691 1.10025584 -1.57764675
| 80> H -7.09797795 2.00051632 -1.06745491
| 81> H -4.96073384 5.30736328 -1.12343344
| 82> H -6.65301621 4.82654059 -1.29369545
| 83> H -5.55850596 4.64438408 -2.64932382
| 84> H -7.08613914 -2.13486839 3.80003932
| 85> H -8.44920824 -1.56592013 2.82871614
| 86> H -7.67623335 -3.08752834 2.43303190
| 87> H -6.16856724 -1.00350331 -0.23673765
| 88> H -7.53888039 -2.07197236 0.10407314
| 89> H -7.69180875 -0.34169689 0.35021248
| 90> H 10.66932228 -2.40397923 1.11195035
| 91> H -5.87505495 1.29968028 0.97412935
| 92> *
| 93> $new_job
| 94> # 
| 95> !wB97X-D3 def2-TZVP def2/J RIJCOSX Grid5 FinalGrid6 TightSCF
| 96> %pal 
| 97>  nprocs 24
| 98> end
| 99> %elprop
|100>    dipole     true
|101>    quadrupole true
|102> end
|103> %tddft
|104>   Mode sTDDFT
|105>   nroots 2
|106>   Ethresh 10.0
|107>   maxcore 5000
|108> end
|109> * xyz 0 1 
|110> C 7.47661659 1.40651512 -3.43437363
|111> C 7.05615018 0.73267689 -2.29025510
|112> C 8.00599751 0.04284032 -1.51351828
|113> C 9.36452373 0.05490175 -1.93790761
|114> C 9.79205732 0.73874785 -3.08624057
|115> C 8.82640487 1.41532914 -3.82754161
|116> C 7.95481361 -0.77242557 -0.30924631
|117> C 9.28902434 -1.22341788 -0.08369186
|118> N 10.11892440 -0.70307668 -1.05967940
|119> C 9.64190569 -2.08146794 0.96833525
|120> C 8.61959118 -2.51283945 1.81106743
|121> C 7.29935849 -2.08933274 1.61435892
|122> C 6.93273030 -1.20801853 0.57897352
|123> H 6.53139773 -2.43572793 2.30215133
|124> H 11.11312156 -0.87857375 -1.13711320
|125> H 8.84614450 -3.18396266 2.63469066
|126> H 6.00871969 0.74639730 -2.00319309
|127> H 10.83648644 0.73537469 -3.38675162
|128> H 9.11956097 1.95637730 -4.72348194
|129> H 6.74738094 1.94163548 -4.03672251
|130> S 0.60080086 0.77682313 0.26075174
|131> C 1.68844132 -0.52019317 0.78005629
|132> N 1.05931489 -1.54673564 1.34026233
|133> N -0.29477671 -1.38117775 1.40026132
|134> C -0.72158510 -0.22501084 0.90105756
|135> C 3.12140098 -0.46560119 0.60294489
|136> N 3.76141213 0.54992978 0.03843132
|137> N 5.11771283 0.36948894 -0.02210397
|138> C 5.53267619 -0.78018267 0.48540020
|139> S 4.19694590 -1.77162297 1.12595208
|140> C -4.84546767 0.96208842 0.90399228
|141> C -3.90241661 1.75234998 0.22250797
|142> C -2.53946960 1.35852006 0.21524254
|143> C -2.12387813 0.18359874 0.90032266
|144> C -3.09731014 -0.61631802 1.56067819
|145> C -4.46218008 -0.22127219 1.55513353
|146> N -2.70517129 -1.72063714 2.33718234
|147> C -3.14294099 -2.92363468 2.16825531
|148> C -4.00652341 -3.36919952 1.00307467
|149> N -5.39120919 -0.96282871 2.33014656
|150> C -6.53522234 -1.35308507 1.87082986
|151> C -7.00420845 -1.18363006 0.43543952
|152> N -4.26121038 3.01026732 -0.32530526
|153> C -5.28486508 3.17854589 -1.09819014
|154> C -6.16939153 2.06585157 -1.63511753
|155> N -1.56271965 2.19304186 -0.36444422
|156> C -1.59201083 2.61444096 -1.58911097
|157> C -2.57141525 2.14431708 -2.64450018
|158> C -2.73745881 -3.99924464 3.14294787
|159> C -7.48622073 -2.07544202 2.79240456
|160> C -5.62787052 4.57218051 -1.56319072
|161> C -0.53607942 3.58618957 -2.04884401
|162> H -2.13578832 -3.59013782 3.94876190
|163> H -2.16133615 -4.77596155 2.63942080
|164> H -3.61669311 -4.48103293 3.57151239
|165> H -3.58120022 -4.25530257 0.53339643
|166> H -5.00753057 -3.63230962 1.34620741
|167> H -4.09812994 -2.58551927 0.25523917
|168> H -0.99477979 4.49832395 -2.43126693
|169> H 0.13468514 3.84861989 -1.23621236
|170> H 0.05176156 3.16017694 -2.86228070
|171> H -3.26192954 2.94333439 -2.91526162
|172> H -3.15335460 1.29459707 -2.29691858
|173> H -2.03658790 1.85868746 -3.54983670
|174> H -6.43811913 2.26338208 -2.67135086
|175> H -5.67240691 1.10025584 -1.57764675
|176> H -7.09797795 2.00051632 -1.06745491
|177> H -4.96073384 5.30736328 -1.12343344
|178> H -6.65301621 4.82654059 -1.29369545
|179> H -5.55850596 4.64438408 -2.64932382
|180> H -7.08613914 -2.13486839 3.80003932
|181> H -8.44920824 -1.56592013 2.82871614
|182> H -7.67623335 -3.08752834 2.43303190
|183> H -6.16856724 -1.00350331 -0.23673765
|184> H -7.53888039 -2.07197236 0.10407314
|185> H -7.69180875 -0.34169689 0.35021248
|186> H 10.66932228 -2.40397923 1.11195035
|187> H -5.87505495 1.29968028 0.97412935
|188> *
|189> 
|190>                          ****END OF INPUT****
================================================================================


                 $$$$$$$$$$$$$$$$$$$$$$$$$$$$$$$$$$$$$$$$$$$$$$ 
                 $ THERE ARE  2 JOBS TO BE PROCESSED THIS RUN $
                 $$$$$$$$$$$$$$$$$$$$$$$$$$$$$$$$$$$$$$$$$$$$$$ 




                 $$$$$$$$$$$$$$$$  JOB NUMBER  1 $$$$$$$$$$$$$$


                       ****************************
                       * Single Point Calculation *
                       ****************************

---------------------------------
CARTESIAN COORDINATES (ANGSTROEM)
---------------------------------
  C      7.476617    1.406515   -3.434374
  C      7.056150    0.732677   -2.290255
  C      8.005998    0.042840   -1.513518
  C      9.364524    0.054902   -1.937908
  C      9.792057    0.738748   -3.086241
  C      8.826405    1.415329   -3.827542
  C      7.954814   -0.772426   -0.309246
  C      9.289024   -1.223418   -0.083692
  N     10.118924   -0.703077   -1.059679
  C      9.641906   -2.081468    0.968335
  C      8.619591   -2.512839    1.811067
  C      7.299358   -2.089333    1.614359
  C      6.932730   -1.208019    0.578974
  H      6.531398   -2.435728    2.302151
  H     11.113122   -0.878574   -1.137113
  H      8.846144   -3.183963    2.634691
  H      6.008720    0.746397   -2.003193
  H     10.836486    0.735375   -3.386752
  H      9.119561    1.956377   -4.723482
  H      6.747381    1.941635   -4.036723
  S      0.600801    0.776823    0.260752
  C      1.688441   -0.520193    0.780056
  N      1.059315   -1.546736    1.340262
  N     -0.294777   -1.381178    1.400261
  C     -0.721585   -0.225011    0.901058
  C      3.121401   -0.465601    0.602945
  N      3.761412    0.549930    0.038431
  N      5.117713    0.369489   -0.022104
  C      5.532676   -0.780183    0.485400
  S      4.196946   -1.771623    1.125952
  C     -4.845468    0.962088    0.903992
  C     -3.902417    1.752350    0.222508
  C     -2.539470    1.358520    0.215243
  C     -2.123878    0.183599    0.900323
  C     -3.097310   -0.616318    1.560678
  C     -4.462180   -0.221272    1.555134
  N     -2.705171   -1.720637    2.337182
  C     -3.142941   -2.923635    2.168255
  C     -4.006523   -3.369200    1.003075
  N     -5.391209   -0.962829    2.330147
  C     -6.535222   -1.353085    1.870830
  C     -7.004208   -1.183630    0.435440
  N     -4.261210    3.010267   -0.325305
  C     -5.284865    3.178546   -1.098190
  C     -6.169392    2.065852   -1.635118
  N     -1.562720    2.193042   -0.364444
  C     -1.592011    2.614441   -1.589111
  C     -2.571415    2.144317   -2.644500
  C     -2.737459   -3.999245    3.142948
  C     -7.486221   -2.075442    2.792405
  C     -5.627871    4.572181   -1.563191
  C     -0.536079    3.586190   -2.048844
  H     -2.135788   -3.590138    3.948762
  H     -2.161336   -4.775962    2.639421
  H     -3.616693   -4.481033    3.571512
  H     -3.581200   -4.255303    0.533396
  H     -5.007531   -3.632310    1.346207
  H     -4.098130   -2.585519    0.255239
  H     -0.994780    4.498324   -2.431267
  H      0.134685    3.848620   -1.236212
  H      0.051762    3.160177   -2.862281
  H     -3.261930    2.943334   -2.915262
  H     -3.153355    1.294597   -2.296919
  H     -2.036588    1.858687   -3.549837
  H     -6.438119    2.263382   -2.671351
  H     -5.672407    1.100256   -1.577647
  H     -7.097978    2.000516   -1.067455
  H     -4.960734    5.307363   -1.123433
  H     -6.653016    4.826541   -1.293695
  H     -5.558506    4.644384   -2.649324
  H     -7.086139   -2.134868    3.800039
  H     -8.449208   -1.565920    2.828716
  H     -7.676233   -3.087528    2.433032
  H     -6.168567   -1.003503   -0.236738
  H     -7.538880   -2.071972    0.104073
  H     -7.691809   -0.341697    0.350212
  H     10.669322   -2.403979    1.111950
  H     -5.875055    1.299680    0.974129

----------------------------
CARTESIAN COORDINATES (A.U.)
----------------------------
  NO LB      ZA    FRAG     MASS         X           Y           Z
   0 C     6.0000    0    12.011   14.128758    2.657928   -6.490026
   1 C     6.0000    0    12.011   13.334191    1.384559   -4.327955
   2 C     6.0000    0    12.011   15.129143    0.080956   -2.860135
   3 C     6.0000    0    12.011   17.696385    0.103749   -3.662115
   4 C     6.0000    0    12.011   18.504307    1.396031   -5.832149
   5 C     6.0000    0    12.011   16.679488    2.674584   -7.233005
   6 C     6.0000    0    12.011   15.032419   -1.459673   -0.584391
   7 C     6.0000    0    12.011   17.553712   -2.311925   -0.158155
   8 N     7.0000    0    14.007   19.121996   -1.328622   -2.002504
   9 C     6.0000    0    12.011   18.220561   -3.933404    1.829888
  10 C     6.0000    0    12.011   16.288667   -4.748578    3.422421
  11 C     6.0000    0    12.011   13.793788   -3.948267    3.050696
  12 C     6.0000    0    12.011   13.100962   -2.282824    1.094101
  13 H     1.0000    0     1.008   12.342553   -4.602859    4.350436
  14 H     1.0000    0     1.008   21.000756   -1.660264   -2.148833
  15 H     1.0000    0     1.008   16.716790   -6.016817    4.978844
  16 H     1.0000    0     1.008   11.354835    1.410486   -3.785486
  17 H     1.0000    0     1.008   20.477992    1.389657   -6.400033
  18 H     1.0000    0     1.008   17.233473    3.697017   -8.926087
  19 H     1.0000    0     1.008   12.750702    3.669159   -7.628300
  20 S    16.0000    0    32.060    1.135349    1.467983    0.492749
  21 C     6.0000    0    12.011    3.190692   -0.983023    1.474093
  22 N     7.0000    0    14.007    2.001815   -2.922907    2.532729
  23 N     7.0000    0    14.007   -0.557047   -2.610048    2.646110
  24 C     6.0000    0    12.011   -1.363598   -0.425209    1.702752
  25 C     6.0000    0    12.011    5.898593   -0.879859    1.139401
  26 N     7.0000    0    14.007    7.108039    1.039217    0.072625
  27 N     7.0000    0    14.007    9.671076    0.698233   -0.041770
  28 C     6.0000    0    12.011   10.455243   -1.474332    0.917273
  29 S    16.0000    0    32.060    7.931078   -3.347882    2.127741
  30 C     6.0000    0    12.011   -9.156607    1.818084    1.708298
  31 C     6.0000    0    12.011   -7.374499    3.311462    0.420479
  32 C     6.0000    0    12.011   -4.798902    2.567231    0.406749
  33 C     6.0000    0    12.011   -4.013548    0.346951    1.701363
  34 C     6.0000    0    12.011   -5.853068   -1.164672    2.949254
  35 C     6.0000    0    12.011   -8.432298   -0.418144    2.938776
  36 N     7.0000    0    14.007   -5.112033   -3.251533    4.416635
  37 C     6.0000    0    12.011   -5.939298   -5.524869    4.097409
  38 C     6.0000    0    12.011   -7.571232   -6.366864    1.895536
  39 N     7.0000    0    14.007  -10.187909   -1.819483    4.403339
  40 C     6.0000    0    12.011  -12.349780   -2.556960    3.535356
  41 C     6.0000    0    12.011  -13.236036   -2.236737    0.822861
  42 N     7.0000    0    14.007   -8.052521    5.688581   -0.614738
  43 C     6.0000    0    12.011   -9.986948    6.006581   -2.075279
  44 C     6.0000    0    12.011  -11.658460    3.903894   -3.089924
  45 N     7.0000    0    14.007   -2.953112    4.144249   -0.688700
  46 C     6.0000    0    12.011   -3.008464    4.940577   -3.002985
  47 C     6.0000    0    12.011   -4.859271    4.052172   -4.997381
  48 C     6.0000    0    12.011   -5.173047   -7.557477    5.939311
  49 C     6.0000    0    12.011  -14.146907   -3.922017    5.276880
  50 C     6.0000    0    12.011  -10.635134    8.640169   -2.954002
  51 C     6.0000    0    12.011   -1.013043    6.776916   -3.871754
  52 H     1.0000    0     1.008   -4.036055   -6.784377    7.462079
  53 H     1.0000    0     1.008   -4.084333   -9.025259    4.987782
  54 H     1.0000    0     1.008   -6.834559   -8.467925    6.749180
  55 H     1.0000    0     1.008   -6.767488   -8.041356    1.007973
  56 H     1.0000    0     1.008   -9.462861   -6.864070    2.543963
  57 H     1.0000    0     1.008   -7.744343   -4.885923    0.482332
  58 H     1.0000    0     1.008   -1.879861    8.500600   -4.594429
  59 H     1.0000    0     1.008    0.254518    7.272838   -2.336103
  60 H     1.0000    0     1.008    0.097815    5.971869   -5.408927
  61 H     1.0000    0     1.008   -6.164153    5.562096   -5.509046
  62 H     1.0000    0     1.008   -5.958977    2.446434   -4.340547
  63 H     1.0000    0     1.008   -3.848593    3.512410   -6.708219
  64 H     1.0000    0     1.008  -12.166282    4.277172   -5.048122
  65 H     1.0000    0     1.008  -10.719296    2.079182   -2.981320
  66 H     1.0000    0     1.008  -13.413234    3.780428   -2.017197
  67 H     1.0000    0     1.008   -9.374428   10.029463   -2.122982
  68 H     1.0000    0     1.008  -12.572379    9.120840   -2.444730
  69 H     1.0000    0     1.008  -10.504054    8.776614   -5.006496
  70 H     1.0000    0     1.008  -13.390862   -4.034317    7.181034
  71 H     1.0000    0     1.008  -15.966690   -2.959160    5.345499
  72 H     1.0000    0     1.008  -14.505979   -5.834583    4.597764
  73 H     1.0000    0     1.008  -11.656903   -1.896346   -0.447369
  74 H     1.0000    0     1.008  -14.246419   -3.915460    0.196670
  75 H     1.0000    0     1.008  -14.535412   -0.645714    0.661806
  76 H     1.0000    0     1.008   20.162097   -4.542862    2.101282
  77 H     1.0000    0     1.008  -11.102245    2.456040    1.840838

--------------------------------
INTERNAL COORDINATES (ANGSTROEM)
--------------------------------
 C      0   0   0     0.000000000000     0.00000000     0.00000000
 C      1   0   0     1.392787554811     0.00000000     0.00000000
 C      2   1   0     1.407623717888   119.12233537     0.00000000
 C      3   2   1     1.423321914375   118.38437545   359.55921661
 C      4   3   2     1.403245896515   122.61133797     0.80023463
 C      5   4   3     1.392757742062   117.45559003   359.47637091
 C      3   2   1     1.455180140307   135.03111338   181.48866659
 C      7   3   2     1.426319440252   105.96892576   177.46878926
 N      8   7   3     1.382765617247   109.31819925     1.23331849
 C      8   7   3     1.402688915198   123.18567181   182.28024900
 C     10   8   7     1.393343412158   117.28556721     0.76490291
 C     11  10   8     1.400380850721   120.87276884   359.35771500
 C     12  11  10     1.408244969096   122.54647234   359.42065811
 H     12  11  10     1.087571494573   118.72163297   180.91501091
 H      9   8   7     1.012533065096   125.31425436   180.86420655
 H     11  10   8     1.086318551254   119.78958996   179.56217647
 H      2   1   3     1.086141555515   120.14069403   179.71802016
 H      5   4   3     1.086807460448   121.16870004   179.76697286
 H      6   5   4     1.086914295300   119.57407523   180.00734440
 H      1   2   3     1.086721034192   119.40460713   180.07718904
 S     17   2   1     5.862760271091   172.59844830   211.26371547
 C     21  17   2     1.770562133433    62.79499496   308.14586680
 N     22  21  17     1.327938370140   113.51484781   197.37537568
 N     23  22  21     1.365493813583   113.24204486   359.81182479
 C     24  23  22     1.329696100450   114.03074975   359.38795359
 C     22  21  17     1.444895193250   123.06481145    17.07077068
 N     26  22  21     1.326496511065   124.02724982   359.93907994
 N     27  26  22     1.369589357032   113.31263119   180.26778108
 C     28  27  26     1.323442436810   114.07964896     0.29268882
 S     26  22  21     1.770882911308   122.56569642   180.06751117
 C     25  24  23     4.291342530820   123.27962420   182.02603694
 C     31  25  24     1.406513241942    60.70997520   187.00870781
 C     32  31  25     1.418724548469   119.38269770     0.27958087
 C     33  32  31     1.422143153465   120.50483159   359.38125889
 C     34  33  32     1.422499956774   119.22421569     1.88228492
 C     31  25  24     1.404007349482    60.31847543     5.57689634
 N     35  34  33     1.405792406952   120.48228087   185.25963243
 C     37  35  34     1.291271363017   124.40353587   234.93097787
 C     38  37  35     1.517217369597   124.54349608     8.20416107
 N     36  31  25     1.419030075880   120.99870111   173.54286546
 C     40  36  31     1.293073062434   122.88387016    53.16880465
 C     41  40  36     1.519542167876   125.09566490     5.18580707
 N     32  31  25     1.418163720671   121.05765735   187.56605115
 C     43  32  31     1.293652835844   123.11763817   308.82850182
 C     44  43  32     1.519462639436   125.20434503   354.10428932
 N     33  32  31     1.409433871886   120.23224850   185.35205295
 C     46  33  32     1.295470502660   124.45393462   303.38591025
 C     47  46  33     1.514627302357   124.91564301   351.73433545
 C     38  37  35     1.507109210000   119.28027206   185.31008174
 C     41  40  36     1.508475199888   119.03056540   183.11786519
 C     44  43  32     1.508673498585   118.96063792   176.43244766
 C     47  46  33     1.506864616258   118.83864491   175.46305921
 H     49  38  37     1.085685046251   111.11144497     3.47581047
 H     49  38  37     1.090296284442   110.60458890   242.82722880
 H     49  38  37     1.090339606948   110.64669785   124.40318094
 H     39  38  37     1.089346630004   110.35057015   128.87123769
 H     39  38  37     1.090404666330   110.59234398   247.47177200
 H     39  38  37     1.087108286069   111.38032230     7.88570412
 H     52  47  46     1.090248800209   110.59239973   237.25014002
 H     52  47  46     1.085893625724   111.12414195   358.03745843
 H     52  47  46     1.090285754894   110.69917501   118.86000635
 H     48  47  46     1.090206587654   110.80154388   111.76553236
 H     48  47  46     1.086963877565   111.47031308   351.13461167
 H     48  47  46     1.089614054872   110.05525539   230.22336883
 H     45  44  43     1.088582720598   110.31606683   219.94186280
 H     45  44  43     1.087507111179   111.43825801   341.06089851
 H     45  44  43     1.090312929597   110.83558416   101.32901902
 H     51  44  43     1.085795340025   111.15784585   356.99527347
 H     51  44  43     1.090069005419   110.68101219   236.16317201
 H     51  44  43     1.090738240193   110.70813848   117.82282534
 H     50  41  40     1.085782934876   111.15364528     3.10297246
 H     50  41  40     1.090080745471   110.69876759   123.98080893
 H     50  41  40     1.090675122869   110.66440633   242.32443771
 H     42  41  40     1.087457597235   111.41935662    18.98606172
 H     42  41  40     1.088498876061   110.37467249   140.15037988
 H     42  41  40     1.090371167839   110.76724986   258.78573328
 H     10   8   7     1.086381000631   121.24291744   180.11653763
 H     31  25  24     1.085788855931   175.77976533    93.00176821

---------------------------
INTERNAL COORDINATES (A.U.)
---------------------------
 C      0   0   0     0.000000000000     0.00000000     0.00000000
 C      1   0   0     2.631987041327     0.00000000     0.00000000
 C      2   1   0     2.660023326421   119.12233537     0.00000000
 C      3   2   1     2.689688618577   118.38437545   359.55921661
 C      4   3   2     2.651750442962   122.61133797     0.80023463
 C      5   4   3     2.631930703396   117.45559003   359.47637091
 C      3   2   1     2.749891940702   135.03111338   181.48866659
 C      7   3   2     2.695353121564   105.96892576   177.46878926
 N      8   7   3     2.613048324000   109.31819925     1.23331849
 C      8   7   3     2.650697900811   123.18567181   182.28024900
 C     10   8   7     2.633037459482   117.28556721     0.76490291
 C     11  10   8     2.646336291050   120.87276884   359.35771500
 C     12  11  10     2.661197321064   122.54647234   359.42065811
 H     12  11  10     2.055212275803   118.72163297   180.91501091
 H      9   8   7     1.913410194572   125.31425436   180.86420655
 H     11  10   8     2.052844556069   119.78958996   179.56217647
 H      2   1   3     2.052510082595   120.14069403   179.71802016
 H      5   4   3     2.053768460548   121.16870004   179.76697286
 H      6   5   4     2.053970349161   119.57407523   180.00734440
 H      1   2   3     2.053605138594   119.40460713   180.07718904
 S     17   2   1    11.079011301196   172.59844830   211.26371547
 C     21  17   2     3.345877535279    62.79499496   308.14586680
 N     22  21  17     2.509439842291   113.51484781   197.37537568
 N     23  22  21     2.580409345235   113.24204486   359.81182479
 C     24  23  22     2.512761471193   114.03074975   359.38795359
 C     22  21  17     2.730456207462   123.06481145    17.07077068
 N     26  22  21     2.506715123515   124.02724982   359.93907994
 N     27  26  22     2.588148800724   113.31263119   180.26778108
 C     28  27  26     2.500943759580   114.07964896     0.29268882
 S     26  22  21     3.346483717614   122.56569642   180.06751117
 C     25  24  23     8.109462130098   123.27962420   182.02603694
 C     31  25  24     2.657924831003    60.70997520   187.00870781
 C     32  31  25     2.681000856077   119.38269770     0.27958087
 C     33  32  31     2.687461083279   120.50483159   359.38125889
 C     34  33  32     2.688135343818   119.22421569     1.88228492
 C     31  25  24     2.653189380533    60.31847543     5.57689634
 N     35  34  33     2.656562650285   120.48228087   185.25963243
 C     37  35  34     2.440149240678   124.40353587   234.93097787
 C     38  37  35     2.867125314167   124.54349608     8.20416107
 N     36  31  25     2.681578219210   120.99870111   173.54286546
 C     40  36  31     2.443553959151   122.88387016    53.16880465
 C     41  40  36     2.871518546230   125.09566490     5.18580707
 N     32  31  25     2.679941045130   121.05765735   187.56605115
 C     43  32  31     2.444649572115   123.11763817   308.82850182
 C     44  43  32     2.871368259259   125.20434503   354.10428932
 N     33  32  31     2.663444021737   120.23224850   185.35205295
 C     46  33  32     2.448084464601   124.45393462   303.38591025
 C     47  46  33     2.862230796415   124.91564301   351.73433545
 C     38  37  35     2.848023660811   119.28027206   185.31008174
 C     41  40  36     2.850605007600   119.03056540   183.11786519
 C     44  43  32     2.850979737830   118.96063792   176.43244766
 C     47  46  33     2.847561445623   118.83864491   175.46305921
 H     49  38  37     2.051647405107   111.11144497     3.47581047
 H     49  38  37     2.060361382427   110.60458890   242.82722880
 H     49  38  37     2.060443250100   110.64669785   124.40318094
 H     39  38  37     2.058566795617   110.35057015   128.87123769
 H     39  38  37     2.060566194513   110.59234398   247.47177200
 H     39  38  37     2.054336938586   111.38032230     7.88570412
 H     52  47  46     2.060271650231   110.59239973   237.25014002
 H     52  47  46     2.052041563190   111.12414195   358.03745843
 H     52  47  46     2.060341484465   110.69917501   118.86000635
 H     48  47  46     2.060191880063   110.80154388   111.76553236
 H     48  47  46     2.054064046063   111.47031308   351.13461167
 H     48  47  46     2.059072155380   110.05525539   230.22336883
 H     45  44  43     2.057123216050   110.31606683   219.94186280
 H     45  44  43     2.055090608820   111.43825801   341.06089851
 H     45  44  43     2.060392837212   110.83558416   101.32901902
 H     51  44  43     2.051855830135   111.15784585   356.99527347
 H     51  44  43     2.059931887318   110.68101219   236.16317201
 H     51  44  43     2.061196557761   110.70813848   117.82282534
 H     50  41  40     2.051832387801   111.15364528     3.10297246
 H     50  41  40     2.059954072801   110.69876759   123.98080893
 H     50  41  40     2.061077283304   110.66440633   242.32443771
 H     42  41  40     2.054997041027   111.41935662    18.98606172
 H     42  41  40     2.056964772837   110.37467249   140.15037988
 H     42  41  40     2.060502891539   110.76724986   258.78573328
 H     10   8   7     2.052962568289   121.24291744   180.11653763
 H     31  25  24     2.051843576974   175.77976533    93.00176821

---------------------
BASIS SET INFORMATION
---------------------
There are 4 groups of distinct atoms

 Group   1 Type C   : 11s6p2d1f contracted to 5s3p2d1f pattern {62111/411/11/1}
 Group   2 Type N   : 11s6p2d1f contracted to 5s3p2d1f pattern {62111/411/11/1}
 Group   3 Type H   : 5s1p contracted to 3s1p pattern {311/1}
 Group   4 Type S   : 14s9p3d1f contracted to 5s5p2d1f pattern {73211/51111/21/1}

Atom   0C    basis set group =>   1
Atom   1C    basis set group =>   1
Atom   2C    basis set group =>   1
Atom   3C    basis set group =>   1
Atom   4C    basis set group =>   1
Atom   5C    basis set group =>   1
Atom   6C    basis set group =>   1
Atom   7C    basis set group =>   1
Atom   8N    basis set group =>   2
Atom   9C    basis set group =>   1
Atom  10C    basis set group =>   1
Atom  11C    basis set group =>   1
Atom  12C    basis set group =>   1
Atom  13H    basis set group =>   3
Atom  14H    basis set group =>   3
Atom  15H    basis set group =>   3
Atom  16H    basis set group =>   3
Atom  17H    basis set group =>   3
Atom  18H    basis set group =>   3
Atom  19H    basis set group =>   3
Atom  20S    basis set group =>   4
Atom  21C    basis set group =>   1
Atom  22N    basis set group =>   2
Atom  23N    basis set group =>   2
Atom  24C    basis set group =>   1
Atom  25C    basis set group =>   1
Atom  26N    basis set group =>   2
Atom  27N    basis set group =>   2
Atom  28C    basis set group =>   1
Atom  29S    basis set group =>   4
Atom  30C    basis set group =>   1
Atom  31C    basis set group =>   1
Atom  32C    basis set group =>   1
Atom  33C    basis set group =>   1
Atom  34C    basis set group =>   1
Atom  35C    basis set group =>   1
Atom  36N    basis set group =>   2
Atom  37C    basis set group =>   1
Atom  38C    basis set group =>   1
Atom  39N    basis set group =>   2
Atom  40C    basis set group =>   1
Atom  41C    basis set group =>   1
Atom  42N    basis set group =>   2
Atom  43C    basis set group =>   1
Atom  44C    basis set group =>   1
Atom  45N    basis set group =>   2
Atom  46C    basis set group =>   1
Atom  47C    basis set group =>   1
Atom  48C    basis set group =>   1
Atom  49C    basis set group =>   1
Atom  50C    basis set group =>   1
Atom  51C    basis set group =>   1
Atom  52H    basis set group =>   3
Atom  53H    basis set group =>   3
Atom  54H    basis set group =>   3
Atom  55H    basis set group =>   3
Atom  56H    basis set group =>   3
Atom  57H    basis set group =>   3
Atom  58H    basis set group =>   3
Atom  59H    basis set group =>   3
Atom  60H    basis set group =>   3
Atom  61H    basis set group =>   3
Atom  62H    basis set group =>   3
Atom  63H    basis set group =>   3
Atom  64H    basis set group =>   3
Atom  65H    basis set group =>   3
Atom  66H    basis set group =>   3
Atom  67H    basis set group =>   3
Atom  68H    basis set group =>   3
Atom  69H    basis set group =>   3
Atom  70H    basis set group =>   3
Atom  71H    basis set group =>   3
Atom  72H    basis set group =>   3
Atom  73H    basis set group =>   3
Atom  74H    basis set group =>   3
Atom  75H    basis set group =>   3
Atom  76H    basis set group =>   3
Atom  77H    basis set group =>   3
-------------------------------
AUXILIARY BASIS SET INFORMATION
-------------------------------
There are 4 groups of distinct atoms

 Group   1 Type C   : 12s5p4d2f1g contracted to 6s4p3d1f1g pattern {711111/2111/211/2/1}
 Group   2 Type N   : 12s5p4d2f1g contracted to 6s4p3d1f1g pattern {711111/2111/211/2/1}
 Group   3 Type H   : 5s2p1d contracted to 3s1p1d pattern {311/2/1}
 Group   4 Type S   : 14s5p5d2f1g contracted to 8s4p3d1f1g pattern {71111111/2111/311/2/1}

Atom   0C    basis set group =>   1
Atom   1C    basis set group =>   1
Atom   2C    basis set group =>   1
Atom   3C    basis set group =>   1
Atom   4C    basis set group =>   1
Atom   5C    basis set group =>   1
Atom   6C    basis set group =>   1
Atom   7C    basis set group =>   1
Atom   8N    basis set group =>   2
Atom   9C    basis set group =>   1
Atom  10C    basis set group =>   1
Atom  11C    basis set group =>   1
Atom  12C    basis set group =>   1
Atom  13H    basis set group =>   3
Atom  14H    basis set group =>   3
Atom  15H    basis set group =>   3
Atom  16H    basis set group =>   3
Atom  17H    basis set group =>   3
Atom  18H    basis set group =>   3
Atom  19H    basis set group =>   3
Atom  20S    basis set group =>   4
Atom  21C    basis set group =>   1
Atom  22N    basis set group =>   2
Atom  23N    basis set group =>   2
Atom  24C    basis set group =>   1
Atom  25C    basis set group =>   1
Atom  26N    basis set group =>   2
Atom  27N    basis set group =>   2
Atom  28C    basis set group =>   1
Atom  29S    basis set group =>   4
Atom  30C    basis set group =>   1
Atom  31C    basis set group =>   1
Atom  32C    basis set group =>   1
Atom  33C    basis set group =>   1
Atom  34C    basis set group =>   1
Atom  35C    basis set group =>   1
Atom  36N    basis set group =>   2
Atom  37C    basis set group =>   1
Atom  38C    basis set group =>   1
Atom  39N    basis set group =>   2
Atom  40C    basis set group =>   1
Atom  41C    basis set group =>   1
Atom  42N    basis set group =>   2
Atom  43C    basis set group =>   1
Atom  44C    basis set group =>   1
Atom  45N    basis set group =>   2
Atom  46C    basis set group =>   1
Atom  47C    basis set group =>   1
Atom  48C    basis set group =>   1
Atom  49C    basis set group =>   1
Atom  50C    basis set group =>   1
Atom  51C    basis set group =>   1
Atom  52H    basis set group =>   3
Atom  53H    basis set group =>   3
Atom  54H    basis set group =>   3
Atom  55H    basis set group =>   3
Atom  56H    basis set group =>   3
Atom  57H    basis set group =>   3
Atom  58H    basis set group =>   3
Atom  59H    basis set group =>   3
Atom  60H    basis set group =>   3
Atom  61H    basis set group =>   3
Atom  62H    basis set group =>   3
Atom  63H    basis set group =>   3
Atom  64H    basis set group =>   3
Atom  65H    basis set group =>   3
Atom  66H    basis set group =>   3
Atom  67H    basis set group =>   3
Atom  68H    basis set group =>   3
Atom  69H    basis set group =>   3
Atom  70H    basis set group =>   3
Atom  71H    basis set group =>   3
Atom  72H    basis set group =>   3
Atom  73H    basis set group =>   3
Atom  74H    basis set group =>   3
Atom  75H    basis set group =>   3
Atom  76H    basis set group =>   3
Atom  77H    basis set group =>   3
-------------------------
ECP PARAMETER INFORMATION
-------------------------



--------------------------------------------------------------------------
[[22773,1],3]: A high-performance Open MPI point-to-point messaging module
was unable to find any relevant network interfaces:

Module: OpenFabrics (openib)
  Host: cx1-136-8-4

Another transport will be used instead, although this may result in
lower performance.
--------------------------------------------------------------------------


           ************************************************************
           *        Program running with 24 parallel MPI-processes    *
           *              working on a common directory               *
           ************************************************************
------------------------------------------------------------------------------
                           ORCA GTO INTEGRAL CALCULATION
                           -- RI-GTO INTEGRALS CHOSEN --
------------------------------------------------------------------------------

                         BASIS SET STATISTICS AND STARTUP INFO

Gaussian basis set:
 # of primitive gaussian shells          ... 1112
 # of primitive gaussian functions       ... 2368
 # of contracted shells                  ...  631
 # of contracted basis functions         ... 1605
 Highest angular momentum                ...    3
 Maximum contraction depth               ...    7
Auxiliary gaussian basis set:
 # of primitive gaussian shells          ... 1350
 # of primitive gaussian functions       ... 3692
 # of contracted shells                  ...  844
 # of contracted aux-basis functions     ... 2572
 Highest angular momentum                ...    4
 Maximum contraction depth               ...    7
Ratio of auxiliary to basis functions    ...  1.60
Integral package used                  ... LIBINT
 One Electron integrals                  
   ECP integrals                         ... done
 Ordering auxiliary basis shells         ... done
 Integral threshhold             Thresh  ...  2.500e-11
 Primitive cut-off               TCut    ...  2.500e-12
 Pre-screening matrix                    ... done
 Shell pair data                         ... 
 Ordering of the shell pairs             ... done (   0.029 sec) 86291 of 199396 pairs
 Determination of significant pairs      ... done (   0.000 sec)
 Creation of shell pair data             ... done (   0.022 sec)
 Storage of shell pair data              ... done (   0.208 sec)
 Shell pair data done in (   0.259 sec)
 Computing two index integrals           ... done
 Cholesky decomposition of the V-matrix  ... done


Timings:
 Total evaluation time                   ...  11.557 sec (  0.193 min)
 One electron matrix time                ...   4.005 sec (  0.067 min) = 34.6%
 Schwartz matrix evaluation time         ...   5.150 sec (  0.086 min) = 44.6%
 Two index repulsion integral time       ...   0.881 sec (  0.015 min) =  7.6%
 Cholesky decomposition of V             ...   1.210 sec (  0.020 min) = 10.5%
 Three index repulsion integral time     ...   0.000 sec (  0.000 min) =  0.0%

--------------------------------------------------------------------------
[[22819,1],1]: A high-performance Open MPI point-to-point messaging module
was unable to find any relevant network interfaces:

Module: OpenFabrics (openib)
  Host: cx1-136-8-4

Another transport will be used instead, although this may result in
lower performance.
--------------------------------------------------------------------------


           ************************************************************
           *        Program running with 24 parallel MPI-processes    *
           *              working on a common directory               *
           ************************************************************
-------------------------------------------------------------------------------
                                 ORCA SCF
-------------------------------------------------------------------------------

------------
SCF SETTINGS
------------
Hamiltonian:
 Density Functional     Method          .... DFT(GTOs)
 Exchange Functional    Exchange        .... WB97X-D3
 Correlation Functional Correlation     .... WB97X-D3
 Gradients option       PostSCFGGA      .... off
 Hybrid DFT is turned on
   Fraction HF Exchange ScalHFX         ....  0.195728
   Scaling of DF-GGA-X  ScalDFX         ....  0.000000
   Scaling of DF-GGA-C  ScalDFC         ....  1.000000
   Scaling of DF-LDA-C  ScalLDAC        ....  1.000000
   Perturbative correction              ....  0.000000
 Long-range corrected/Screened/Range-Separated Hybrid DFT is turned on
   Amount of maximum screened exact exchange              ....  0.804272
   Range separation parameter mu (erf(mu*r12)/r12)        ....  0.250000
 RI-approximation to the Coulomb term is turned on
   Number of auxiliary basis functions  .... 2572
   RIJ-COSX (HFX calculated with COS-X)).... on


General Settings:
 Integral files         IntName         .... total
 Hartree-Fock type      HFTyp           .... RHF
 Total Charge           Charge          ....    0
 Multiplicity           Mult            ....    1
 Number of Electrons    NEL             ....  332
 Basis Dimension        Dim             .... 1605
 Nuclear Repulsion      ENuc            ....   5422.8069902883 Eh

Convergence Acceleration:
 DIIS                   CNVDIIS         .... on
   Start iteration      DIISMaxIt       ....    12
   Startup error        DIISStart       ....  0.200000
   # of expansion vecs  DIISMaxEq       ....     5
   Bias factor          DIISBfac        ....   1.050
   Max. coefficient     DIISMaxC        ....  10.000
 Newton-Raphson         CNVNR           .... off
 SOSCF                  CNVSOSCF        .... on
   Start iteration      SOSCFMaxIt      ....   150
   Startup grad/error   SOSCFStart      ....  0.003300
 Level Shifting         CNVShift        .... on
   Level shift para.    LevelShift      ....    0.2500
   Turn off err/grad.   ShiftErr        ....    0.0010
 Zerner damping         CNVZerner       .... off
 Static damping         CNVDamp         .... on
   Fraction old density DampFac         ....    0.7000
   Max. Damping (<1)    DampMax         ....    0.9800
   Min. Damping (>=0)   DampMin         ....    0.0000
   Turn off err/grad.   DampErr         ....    0.1000
 Fernandez-Rico         CNVRico         .... off

SCF Procedure:
 Maximum # iterations   MaxIter         ....   125
 SCF integral mode      SCFMode         .... Direct
   Integral package                     .... LIBINT
 Reset frequeny         DirectResetFreq ....    20
 Integral Threshold     Thresh          ....  2.500e-11 Eh
 Primitive CutOff       TCut            ....  2.500e-12 Eh

Convergence Tolerance:
 Convergence Check Mode ConvCheckMode   .... Total+1el-Energy
 Convergence forced     ConvForced      .... 1
 Energy Change          TolE            ....  1.000e-08 Eh
 1-El. energy change                    ....  1.000e-05 Eh
 Orbital Gradient       TolG            ....  1.000e-05
 Orbital Rotation angle TolX            ....  1.000e-05
 DIIS Error             TolErr          ....  5.000e-07


Diagonalization of the overlap matrix:
Smallest eigenvalue                        ... 3.304e-06
Time for diagonalization                   ...    0.875 sec
Threshold for overlap eigenvalues          ... 1.000e-08
Number of eigenvalues below threshold      ... 0
Time for construction of square roots      ...    0.955 sec
Total time needed                          ...    1.848 sec

-------------------
DFT GRID GENERATION
-------------------

General Integration Accuracy     IntAcc      ...  5.010
Radial Grid Type                 RadialGrid  ... Gauss-Chebyshev
Angular Grid (max. acc.)         AngularGrid ... Lebedev-434
Angular grid pruning method      GridPruning ... 3 (G Style)
Weight generation scheme         WeightScheme... Becke
Basis function cutoff            BFCut       ...    1.0000e-11
Integration weight cutoff        WCut        ...    1.0000e-14
Grids for H and He will be reduced by one unit

# of grid points (after initial pruning)     ... 703358 (   0.0 sec)
# of grid points (after weights+screening)   ... 602983 (   4.3 sec)
nearest neighbour list constructed           ...    0.0 sec
Grid point re-assignment to atoms done       ...    0.3 sec
Grid point division into batches done        ...    7.2 sec
Reduced shell lists constructed in    8.7 sec

Total number of grid points                  ...   602983
Total number of batches                      ...     9462
Average number of points per batch           ...       63
Average number of grid points per atom       ...     7731
Average number of shells per batch           ...   138.82 (22.00%)
Average number of basis functions per batch  ...   366.52 (22.84%)
Average number of large shells per batch     ...    97.02 (69.89%)
Average number of large basis fcns per batch ...   255.45 (69.70%)
Maximum spatial batch extension              ...  13.96, 13.72, 12.16 au
Average spatial batch extension              ...   0.05,  0.06,  0.06 au

Time for grid setup =   14.026 sec

------------------------------
INITIAL GUESS: MODEL POTENTIAL
------------------------------
Loading Hartree-Fock densities                     ... done
Calculating cut-offs                               ... done
Setting up the integral package                    ... done
Initializing the effective Hamiltonian             ... done
Starting the Coulomb interaction                   ... done (   1.5 sec)
Reading the grid                                   ... done
Mapping shells                                     ... done
Starting the XC term evaluation                    ... done (   3.8 sec)
  promolecular density results
     # of electrons  =    331.983962556
     EX              =   -292.209663440
     EC              =    -11.334428761
     EX+EC           =   -303.544092201
Transforming the Hamiltonian                       ... done (   0.5 sec)
Diagonalizing the Hamiltonian                      ... done (   0.9 sec)
Back transforming the eigenvectors                 ... done (   0.3 sec)
Now organizing SCF variables                       ... done
                      ------------------
                      INITIAL GUESS DONE (  21.5 sec)
                      ------------------
--------------------
COSX GRID GENERATION
--------------------

General Integration Accuracy     IntAcc      ...  3.340
Radial Grid Type                 RadialGrid  ... Gauss-Chebyshev
Angular Grid (max. acc.)         AngularGrid ... Lebedev-50
Angular grid pruning method      GridPruning ... 3 (G Style)
Weight generation scheme         WeightScheme... Becke
Basis function cutoff            BFCut       ...    1.0000e-11
Integration weight cutoff        WCut        ...    1.0000e-14
Grids for H and He will be reduced by one unit

# of grid points (after initial pruning)     ...  36786 (   0.0 sec)
# of grid points (after weights+screening)   ...  32910 (   0.2 sec)
nearest neighbour list constructed           ...    0.0 sec
Grid point re-assignment to atoms done       ...    0.0 sec
Grid point division into batches done        ...    0.0 sec
Reduced shell lists constructed in    0.2 sec

Total number of grid points                  ...    32910
Total number of batches                      ...      550
Average number of points per batch           ...       59
Average number of grid points per atom       ...      422
Average number of shells per batch           ...   158.75 (25.16%)
Average number of basis functions per batch  ...   422.83 (26.34%)
Average number of large shells per batch     ...   110.83 (69.82%)
Average number of large basis fcns per batch ...   297.17 (70.28%)
Maximum spatial batch extension              ...   8.75, 18.42, 15.10 au
Average spatial batch extension              ...   0.13,  0.23,  0.17 au

Overlap Fitting                  UseSFitting ... on
Constructing numerical overlap ... done (      0.2 sec)
Inverting numerical overlap    ... done (      0.4 sec)
Obtaining analytic overlap     ... done (      0.0 sec)
Final contraction and storage  ... done (      1.4 sec)


General Integration Accuracy     IntAcc      ...  3.670
Radial Grid Type                 RadialGrid  ... Gauss-Chebyshev
Angular Grid (max. acc.)         AngularGrid ... Lebedev-50
Angular grid pruning method      GridPruning ... 3 (G Style)
Weight generation scheme         WeightScheme... Becke
Basis function cutoff            BFCut       ...    1.0000e-11
Integration weight cutoff        WCut        ...    1.0000e-14
Grids for H and He will be reduced by one unit

# of grid points (after initial pruning)     ...  46486 (   0.0 sec)
# of grid points (after weights+screening)   ...  41424 (   0.3 sec)
nearest neighbour list constructed           ...    0.0 sec
Grid point re-assignment to atoms done       ...    0.0 sec
Grid point division into batches done        ...    0.0 sec
Reduced shell lists constructed in    0.2 sec

Total number of grid points                  ...    41424
Total number of batches                      ...      684
Average number of points per batch           ...       60
Average number of grid points per atom       ...      531
Average number of shells per batch           ...   155.33 (24.62%)
Average number of basis functions per batch  ...   412.73 (25.72%)
Average number of large shells per batch     ...   109.23 (70.32%)
Average number of large basis fcns per batch ...   292.90 (70.97%)
Maximum spatial batch extension              ...   7.20, 18.23, 14.44 au
Average spatial batch extension              ...   0.11,  0.19,  0.16 au

Overlap Fitting                  UseSFitting ... on
Constructing numerical overlap ... done (      0.3 sec)
Inverting numerical overlap    ... done (      0.3 sec)
Obtaining analytic overlap     ... done (      0.0 sec)
Final contraction and storage  ... done (      1.4 sec)


General Integration Accuracy     IntAcc      ...  4.010
Radial Grid Type                 RadialGrid  ... Gauss-Chebyshev
Angular Grid (max. acc.)         AngularGrid ... Lebedev-110
Angular grid pruning method      GridPruning ... 3 (G Style)
Weight generation scheme         WeightScheme... Becke
Basis function cutoff            BFCut       ...    1.0000e-11
Integration weight cutoff        WCut        ...    1.0000e-14
Grids for H and He will be reduced by one unit

# of grid points (after initial pruning)     ...  88432 (   0.0 sec)
# of grid points (after weights+screening)   ...  78308 (   0.7 sec)
nearest neighbour list constructed           ...    0.0 sec
Grid point re-assignment to atoms done       ...    0.0 sec
Grid point division into batches done        ...    0.1 sec
Reduced shell lists constructed in    0.4 sec

Total number of grid points                  ...    78308
Total number of batches                      ...     1260
Average number of points per batch           ...       62
Average number of grid points per atom       ...     1004
Average number of shells per batch           ...   154.20 (24.44%)
Average number of basis functions per batch  ...   411.35 (25.63%)
Average number of large shells per batch     ...   107.87 (69.95%)
Average number of large basis fcns per batch ...   287.98 (70.01%)
Maximum spatial batch extension              ...   9.08, 33.82, 21.34 au
Average spatial batch extension              ...   0.10,  0.16,  0.14 au

Overlap Fitting                  UseSFitting ... on
Constructing numerical overlap ... done (      0.4 sec)
Inverting numerical overlap    ... done (      0.4 sec)
Obtaining analytic overlap     ... done (      0.0 sec)
Final contraction and storage  ... done (      1.4 sec)

Time for X-Grid setup             =    9.073 sec
--------------
SCF ITERATIONS
--------------
ITER       Energy         Delta-E        Max-DP      RMS-DP      [F,P]     Damp
               ***  Starting incremental Fock matrix formation  ***
  0  -2603.6072963556   0.000000000000 0.21926893  0.00070391  0.1771143 0.7000
  1  -2604.0493415287  -0.442045173067 0.18492372  0.00063490  0.1041267 0.7000
                               ***Turning on DIIS***
  2  -2604.2701715082  -0.220829979497 0.28216314  0.00123020  0.0570818 0.0000
  3  -2604.6280499324  -0.357878424217 0.18375308  0.00049558  0.0423284 0.0000
  4  -2604.6853480660  -0.057298133598 0.04803856  0.00012631  0.0071479 0.0000
  5  -2604.6878036717  -0.002455605743 0.01458207  0.00005655  0.0045135 0.0000
                      *** Initiating the SOSCF procedure ***
                           *** Shutting down DIIS ***
                      *** Re-Reading the Fockian *** 
                      *** Removing any level shift *** 
ITER      Energy       Delta-E        Grad      Rot      Max-DP    RMS-DP
  6  -2604.68834631  -0.0005426354  0.001921  0.001921  0.006094  0.000029
               *** Restarting incremental Fock matrix formation ***
  7  -2604.68852836  -0.0001820540  0.001267  0.003510  0.010783  0.000092
  8  -2604.68859281  -0.0000644484  0.000386  0.003463  0.009438  0.000064
  9  -2604.68860845  -0.0000156446  0.000254  0.000782  0.007605  0.000053
 10  -2604.68861668  -0.0000082290  0.000072  0.000150  0.001541  0.000012
 11  -2604.68861715  -0.0000004628  0.000062  0.000155  0.000916  0.000007
 12  -2604.68861758  -0.0000004335  0.000013  0.000028  0.000587  0.000002
 13  -2604.68861757   0.0000000123  0.000008  0.000017  0.000507  0.000002
 14  -2604.68861767  -0.0000001033  0.000003  0.000014  0.000657  0.000002
                  ***Gradient check signals convergence***
              ***Rediagonalizing the Fockian in SOSCF/NRSCF***

               *****************************************************
               *                     SUCCESS                       *
               *           SCF CONVERGED AFTER  15 CYCLES          *
               *****************************************************

Old exchange energy                            =    -93.753052590 Eh
New exchange energy                            =    -93.753794417 Eh
Exchange energy change after final integration =     -0.000741827 Eh
Total energy after final integration           =  -2604.689359585 Eh
Final COS-X integration done in                =   102.313 sec

----------------
TOTAL SCF ENERGY
----------------

Total Energy       :        -2604.68935959 Eh          -70877.20080 eV

Components:
Nuclear Repulsion  :         5422.80699029 Eh          147562.08012 eV
Electronic Energy  :        -8027.49634987 Eh         -218439.28092 eV
One Electron Energy:       -14348.90976232 Eh         -390453.68491 eV
Two Electron Energy:         6321.41341244 Eh          172014.40400 eV

Virial components:
Potential Energy   :        -5198.07606282 Eh         -141446.84069 eV
Kinetic Energy     :         2593.38670323 Eh           70569.63989 eV
Virial Ratio       :            2.00435826


DFT components:
N(Alpha)           :      165.999992774525 electrons
N(Beta)            :      165.999992774525 electrons
N(Total)           :      331.999985549049 electrons
E(XC)              :     -216.252675481182 Eh       

---------------
SCF CONVERGENCE
---------------

  Last Energy change         ...   -8.8176e-08  Tolerance :   1.0000e-08
  Last MAX-Density change    ...    2.5646e-14  Tolerance :   1.0000e-07
  Last RMS-Density change    ...    1.0556e-16  Tolerance :   5.0000e-09
  Last Orbital Gradient      ...    1.7700e-06  Tolerance :   1.0000e-05
  Last Orbital Rotation      ...    3.8951e-06  Tolerance :   1.0000e-05

             **** THE GBW FILE WAS UPDATED (total.gbw) ****
             **** DENSITY FILE WAS UPDATED (total.scfp.tmp) ****
             **** ENERGY FILE WAS UPDATED (total.en.tmp) ****
----------------
ORBITAL ENERGIES
----------------

  NO   OCC          E(Eh)            E(eV) 
   0   2.0000     -88.993733     -2421.6426 
   1   2.0000     -88.984232     -2421.3841 
   2   2.0000     -14.465196      -393.6180 
   3   2.0000     -14.457531      -393.4094 
   4   2.0000     -14.452224      -393.2650 
   5   2.0000     -14.450124      -393.2079 
   6   2.0000     -14.438776      -392.8991 
   7   2.0000     -14.424307      -392.5053 
   8   2.0000     -14.423522      -392.4840 
   9   2.0000     -14.421045      -392.4166 
  10   2.0000     -14.407006      -392.0346 
  11   2.0000     -10.364442      -282.0308 
  12   2.0000     -10.361914      -281.9620 
  13   2.0000     -10.352607      -281.7088 
  14   2.0000     -10.350382      -281.6482 
  15   2.0000     -10.349609      -281.6272 
  16   2.0000     -10.347380      -281.5665 
  17   2.0000     -10.344565      -281.4899 
  18   2.0000     -10.329672      -281.0847 
  19   2.0000     -10.328567      -281.0546 
  20   2.0000     -10.325194      -280.9628 
  21   2.0000     -10.323137      -280.9068 
  22   2.0000     -10.320728      -280.8413 
  23   2.0000     -10.317374      -280.7500 
  24   2.0000     -10.315939      -280.7110 
  25   2.0000     -10.313244      -280.6376 
  26   2.0000     -10.303875      -280.3827 
  27   2.0000     -10.298191      -280.2280 
  28   2.0000     -10.292793      -280.0811 
  29   2.0000     -10.291586      -280.0483 
  30   2.0000     -10.289692      -279.9968 
  31   2.0000     -10.289526      -279.9922 
  32   2.0000     -10.289070      -279.9798 
  33   2.0000     -10.287270      -279.9308 
  34   2.0000     -10.284780      -279.8631 
  35   2.0000     -10.284154      -279.8461 
  36   2.0000     -10.283362      -279.8245 
  37   2.0000     -10.281038      -279.7613 
  38   2.0000     -10.279633      -279.7230 
  39   2.0000     -10.278749      -279.6990 
  40   2.0000     -10.276596      -279.6404 
  41   2.0000     -10.273718      -279.5621 
  42   2.0000     -10.271847      -279.5112 
  43   2.0000     -10.265985      -279.3517 
  44   2.0000     -10.262740      -279.2634 
  45   2.0000      -8.090018      -220.1406 
  46   2.0000      -8.079517      -219.8548 
  47   2.0000      -6.043075      -164.4404 
  48   2.0000      -6.039187      -164.3346 
  49   2.0000      -6.037113      -164.2782 
  50   2.0000      -6.032755      -164.1596 
  51   2.0000      -6.028595      -164.0464 
  52   2.0000      -6.026578      -163.9915 
  53   2.0000      -1.139726       -31.0135 
  54   2.0000      -1.127216       -30.6731 
  55   2.0000      -1.102229       -29.9932 
  56   2.0000      -1.070138       -29.1199 
  57   2.0000      -1.057469       -28.7752 
  58   2.0000      -1.040244       -28.3065 
  59   2.0000      -1.029397       -28.0113 
  60   2.0000      -0.983757       -26.7694 
  61   2.0000      -0.968856       -26.3639 
  62   2.0000      -0.960418       -26.1343 
  63   2.0000      -0.955360       -25.9967 
  64   2.0000      -0.932897       -25.3854 
  65   2.0000      -0.920465       -25.0471 
  66   2.0000      -0.908124       -24.7113 
  67   2.0000      -0.898888       -24.4600 
  68   2.0000      -0.892311       -24.2810 
  69   2.0000      -0.888862       -24.1872 
  70   2.0000      -0.880479       -23.9590 
  71   2.0000      -0.870213       -23.6797 
  72   2.0000      -0.867414       -23.6035 
  73   2.0000      -0.845762       -23.0144 
  74   2.0000      -0.840701       -22.8766 
  75   2.0000      -0.835360       -22.7313 
  76   2.0000      -0.833049       -22.6684 
  77   2.0000      -0.827955       -22.5298 
  78   2.0000      -0.825943       -22.4751 
  79   2.0000      -0.816042       -22.2056 
  80   2.0000      -0.806840       -21.9552 
  81   2.0000      -0.773405       -21.0454 
  82   2.0000      -0.760922       -20.7057 
  83   2.0000      -0.747658       -20.3448 
  84   2.0000      -0.736784       -20.0489 
  85   2.0000      -0.721300       -19.6276 
  86   2.0000      -0.716453       -19.4957 
  87   2.0000      -0.708581       -19.2815 
  88   2.0000      -0.699038       -19.0218 
  89   2.0000      -0.678299       -18.4574 
  90   2.0000      -0.675548       -18.3826 
  91   2.0000      -0.655195       -17.8288 
  92   2.0000      -0.640592       -17.4314 
  93   2.0000      -0.638437       -17.3728 
  94   2.0000      -0.627111       -17.0646 
  95   2.0000      -0.617429       -16.8011 
  96   2.0000      -0.610445       -16.6110 
  97   2.0000      -0.609078       -16.5738 
  98   2.0000      -0.602469       -16.3940 
  99   2.0000      -0.599871       -16.3233 
 100   2.0000      -0.591533       -16.0964 
 101   2.0000      -0.580287       -15.7904 
 102   2.0000      -0.577525       -15.7153 
 103   2.0000      -0.570407       -15.5216 
 104   2.0000      -0.568349       -15.4656 
 105   2.0000      -0.563812       -15.3421 
 106   2.0000      -0.561006       -15.2657 
 107   2.0000      -0.557407       -15.1678 
 108   2.0000      -0.554914       -15.1000 
 109   2.0000      -0.554408       -15.0862 
 110   2.0000      -0.553040       -15.0490 
 111   2.0000      -0.547877       -14.9085 
 112   2.0000      -0.545209       -14.8359 
 113   2.0000      -0.542292       -14.7565 
 114   2.0000      -0.537764       -14.6333 
 115   2.0000      -0.537081       -14.6147 
 116   2.0000      -0.532158       -14.4808 
 117   2.0000      -0.529779       -14.4160 
 118   2.0000      -0.526049       -14.3145 
 119   2.0000      -0.522576       -14.2200 
 120   2.0000      -0.519905       -14.1473 
 121   2.0000      -0.518530       -14.1099 
 122   2.0000      -0.512671       -13.9505 
 123   2.0000      -0.509055       -13.8521 
 124   2.0000      -0.508020       -13.8239 
 125   2.0000      -0.504703       -13.7337 
 126   2.0000      -0.499611       -13.5951 
 127   2.0000      -0.498649       -13.5689 
 128   2.0000      -0.495471       -13.4825 
 129   2.0000      -0.491668       -13.3790 
 130   2.0000      -0.487512       -13.2659 
 131   2.0000      -0.485898       -13.2220 
 132   2.0000      -0.481177       -13.0935 
 133   2.0000      -0.476548       -12.9675 
 134   2.0000      -0.472344       -12.8531 
 135   2.0000      -0.470559       -12.8046 
 136   2.0000      -0.469772       -12.7831 
 137   2.0000      -0.468561       -12.7502 
 138   2.0000      -0.464173       -12.6308 
 139   2.0000      -0.462101       -12.5744 
 140   2.0000      -0.457143       -12.4395 
 141   2.0000      -0.440242       -11.9796 
 142   2.0000      -0.439014       -11.9462 
 143   2.0000      -0.429281       -11.6813 
 144   2.0000      -0.428033       -11.6474 
 145   2.0000      -0.422631       -11.5004 
 146   2.0000      -0.407862       -11.0985 
 147   2.0000      -0.404825       -11.0159 
 148   2.0000      -0.394888       -10.7455 
 149   2.0000      -0.391024       -10.6403 
 150   2.0000      -0.387603       -10.5472 
 151   2.0000      -0.386947       -10.5294 
 152   2.0000      -0.379703       -10.3322 
 153   2.0000      -0.374061       -10.1787 
 154   2.0000      -0.366064        -9.9611 
 155   2.0000      -0.360589        -9.8121 
 156   2.0000      -0.359027        -9.7696 
 157   2.0000      -0.353964        -9.6318 
 158   2.0000      -0.349225        -9.5029 
 159   2.0000      -0.345883        -9.4120 
 160   2.0000      -0.328442        -8.9374 
 161   2.0000      -0.324941        -8.8421 
 162   2.0000      -0.297637        -8.0991 
 163   2.0000      -0.291122        -7.9218 
 164   2.0000      -0.281983        -7.6732 
 165   2.0000      -0.271520        -7.3884 
 166   0.0000      -0.018491        -0.5032 
 167   0.0000       0.012435         0.3384 
 168   0.0000       0.032981         0.8975 
 169   0.0000       0.036308         0.9880 
 170   0.0000       0.053975         1.4687 
 171   0.0000       0.062755         1.7077 
 172   0.0000       0.064094         1.7441 
 173   0.0000       0.080955         2.2029 
 174   0.0000       0.083337         2.2677 
 175   0.0000       0.086388         2.3507 
 176   0.0000       0.090310         2.4575 
 177   0.0000       0.101551         2.7633 
 178   0.0000       0.103058         2.8043 
 179   0.0000       0.112054         3.0491 
 180   0.0000       0.113664         3.0930 
 181   0.0000       0.114814         3.1242 
 182   0.0000       0.118520         3.2251 
 183   0.0000       0.122129         3.3233 
 184   0.0000       0.126335         3.4378 
 185   0.0000       0.127883         3.4799 
 186   0.0000       0.134663         3.6644 
 187   0.0000       0.136244         3.7074 
 188   0.0000       0.142867         3.8876 
 189   0.0000       0.145134         3.9493 
 190   0.0000       0.146595         3.9890 
 191   0.0000       0.154705         4.2097 
 192   0.0000       0.155624         4.2347 
 193   0.0000       0.158931         4.3247 
 194   0.0000       0.162097         4.4109 
 195   0.0000       0.167574         4.5599 
 196   0.0000       0.170920         4.6510 
 197   0.0000       0.173305         4.7159 
 198   0.0000       0.175166         4.7665 
 199   0.0000       0.178411         4.8548 
 200   0.0000       0.180211         4.9038 
 201   0.0000       0.183420         4.9911 
 202   0.0000       0.186117         5.0645 
 203   0.0000       0.187678         5.1070 
 204   0.0000       0.190040         5.1713 
 205   0.0000       0.193028         5.2526 
 206   0.0000       0.193614         5.2685 
 207   0.0000       0.193965         5.2780 
 208   0.0000       0.196493         5.3469 
 209   0.0000       0.199567         5.4305 
 210   0.0000       0.202129         5.5002 
 211   0.0000       0.206880         5.6295 
 212   0.0000       0.209097         5.6898 
 213   0.0000       0.211595         5.7578 
 214   0.0000       0.216613         5.8943 
 215   0.0000       0.219191         5.9645 
 216   0.0000       0.219765         5.9801 
 217   0.0000       0.220894         6.0108 
 218   0.0000       0.224659         6.1133 
 219   0.0000       0.225371         6.1327 
 220   0.0000       0.226375         6.1600 
 221   0.0000       0.228520         6.2183 
 222   0.0000       0.230277         6.2662 
 223   0.0000       0.231264         6.2930 
 224   0.0000       0.236672         6.4402 
 225   0.0000       0.238641         6.4938 
 226   0.0000       0.246558         6.7092 
 227   0.0000       0.248188         6.7535 
 228   0.0000       0.251141         6.8339 
 229   0.0000       0.254145         6.9156 
 230   0.0000       0.258765         7.0414 
 231   0.0000       0.259999         7.0749 
 232   0.0000       0.261714         7.1216 
 233   0.0000       0.262840         7.1522 
 234   0.0000       0.266158         7.2425 
 235   0.0000       0.268725         7.3124 
 236   0.0000       0.270511         7.3610 
 237   0.0000       0.273837         7.4515 
 238   0.0000       0.275273         7.4906 
 239   0.0000       0.277557         7.5527 
 240   0.0000       0.281716         7.6659 
 241   0.0000       0.282703         7.6927 
 242   0.0000       0.283753         7.7213 
 243   0.0000       0.285813         7.7774 
 244   0.0000       0.287220         7.8157 
 245   0.0000       0.290747         7.9116 
 246   0.0000       0.294092         8.0026 
 247   0.0000       0.296681         8.0731 
 248   0.0000       0.298745         8.1293 
 249   0.0000       0.301369         8.2007 
 250   0.0000       0.303314         8.2536 
 251   0.0000       0.304846         8.2953 
 252   0.0000       0.306199         8.3321 
 253   0.0000       0.307890         8.3781 
 254   0.0000       0.310831         8.4581 
 255   0.0000       0.316921         8.6239 
 256   0.0000       0.318202         8.6587 
 257   0.0000       0.318414         8.6645 
 258   0.0000       0.322271         8.7694 
 259   0.0000       0.325984         8.8705 
 260   0.0000       0.326914         8.8958 
 261   0.0000       0.332034         9.0351 
 262   0.0000       0.335658         9.1337 
 263   0.0000       0.336868         9.1666 
 264   0.0000       0.339535         9.2392 
 265   0.0000       0.340992         9.2789 
 266   0.0000       0.344403         9.3717 
 267   0.0000       0.345562         9.4032 
 268   0.0000       0.348245         9.4762 
 269   0.0000       0.351034         9.5521 
 270   0.0000       0.352796         9.6001 
 271   0.0000       0.356971         9.7137 
 272   0.0000       0.358904         9.7663 
 273   0.0000       0.359949         9.7947 
 274   0.0000       0.361966         9.8496 
 275   0.0000       0.366715         9.9788 
 276   0.0000       0.368993        10.0408 
 277   0.0000       0.373825        10.1723 
 278   0.0000       0.375839        10.2271 
 279   0.0000       0.378160        10.2903 
 280   0.0000       0.379608        10.3297 
 281   0.0000       0.384257        10.4562 
 282   0.0000       0.386165        10.5081 
 283   0.0000       0.387923        10.5559 
 284   0.0000       0.389064        10.5870 
 285   0.0000       0.393089        10.6965 
 286   0.0000       0.393746        10.7144 
 287   0.0000       0.394979        10.7479 
 288   0.0000       0.396480        10.7888 
 289   0.0000       0.397301        10.8111 
 290   0.0000       0.401714        10.9312 
 291   0.0000       0.403904        10.9908 
 292   0.0000       0.406264        11.0550 
 293   0.0000       0.408095        11.1048 
 294   0.0000       0.413081        11.2405 
 295   0.0000       0.414186        11.2706 
 296   0.0000       0.416163        11.3244 
 297   0.0000       0.418764        11.3951 
 298   0.0000       0.419627        11.4186 
 299   0.0000       0.422060        11.4848 
 300   0.0000       0.423246        11.5171 
 301   0.0000       0.427014        11.6196 
 302   0.0000       0.428056        11.6480 
 303   0.0000       0.432281        11.7630 
 304   0.0000       0.433108        11.7855 
 305   0.0000       0.438689        11.9373 
 306   0.0000       0.441879        12.0241 
 307   0.0000       0.442755        12.0480 
 308   0.0000       0.445390        12.1197 
 309   0.0000       0.449061        12.2196 
 310   0.0000       0.451746        12.2926 
 311   0.0000       0.454995        12.3811 
 312   0.0000       0.456426        12.4200 
 313   0.0000       0.458169        12.4674 
 314   0.0000       0.460080        12.5194 
 315   0.0000       0.461147        12.5484 
 316   0.0000       0.465789        12.6748 
 317   0.0000       0.467440        12.7197 
 318   0.0000       0.469178        12.7670 
 319   0.0000       0.469980        12.7888 
 320   0.0000       0.473881        12.8949 
 321   0.0000       0.474549        12.9131 
 322   0.0000       0.476729        12.9724 
 323   0.0000       0.476926        12.9778 
 324   0.0000       0.482555        13.1310 
 325   0.0000       0.484766        13.1912 
 326   0.0000       0.485148        13.2016 
 327   0.0000       0.487206        13.2576 
 328   0.0000       0.487898        13.2764 
 329   0.0000       0.491368        13.3708 
 330   0.0000       0.494274        13.4499 
 331   0.0000       0.499610        13.5951 
 332   0.0000       0.500777        13.6268 
 333   0.0000       0.501742        13.6531 
 334   0.0000       0.504155        13.7187 
 335   0.0000       0.505984        13.7685 
 336   0.0000       0.507774        13.8172 
 337   0.0000       0.509353        13.8602 
 338   0.0000       0.512118        13.9354 
 339   0.0000       0.513088        13.9618 
 340   0.0000       0.514644        14.0042 
 341   0.0000       0.515948        14.0397 
 342   0.0000       0.518912        14.1203 
 343   0.0000       0.523504        14.2453 
 344   0.0000       0.524981        14.2855 
 345   0.0000       0.525941        14.3116 
 346   0.0000       0.528234        14.3740 
 347   0.0000       0.530116        14.4252 
 348   0.0000       0.532613        14.4931 
 349   0.0000       0.534748        14.5512 
 350   0.0000       0.537042        14.6136 
 351   0.0000       0.538516        14.6538 
 352   0.0000       0.540591        14.7102 
 353   0.0000       0.541776        14.7425 
 354   0.0000       0.543195        14.7811 
 355   0.0000       0.544842        14.8259 
 356   0.0000       0.546934        14.8828 
 357   0.0000       0.549301        14.9473 
 358   0.0000       0.549975        14.9656 
 359   0.0000       0.550084        14.9685 
 360   0.0000       0.553132        15.0515 
 361   0.0000       0.554609        15.0917 
 362   0.0000       0.556389        15.1401 
 363   0.0000       0.557852        15.1799 
 364   0.0000       0.560284        15.2461 
 365   0.0000       0.561231        15.2719 
 366   0.0000       0.564357        15.3569 
 367   0.0000       0.567037        15.4298 
 368   0.0000       0.569731        15.5032 
 369   0.0000       0.573868        15.6158 
 370   0.0000       0.576350        15.6833 
 371   0.0000       0.576730        15.6936 
 372   0.0000       0.578339        15.7374 
 373   0.0000       0.579349        15.7649 
 374   0.0000       0.581184        15.8148 
 375   0.0000       0.583163        15.8687 
 376   0.0000       0.585600        15.9350 
 377   0.0000       0.587181        15.9780 
 378   0.0000       0.593387        16.1469 
 379   0.0000       0.595464        16.2034 
 380   0.0000       0.597227        16.2514 
 381   0.0000       0.597606        16.2617 
 382   0.0000       0.598782        16.2937 
 383   0.0000       0.604021        16.4362 
 384   0.0000       0.606263        16.4973 
 385   0.0000       0.608099        16.5472 
 386   0.0000       0.611306        16.6345 
 387   0.0000       0.612751        16.6738 
 388   0.0000       0.614620        16.7247 
 389   0.0000       0.617540        16.8041 
 390   0.0000       0.619998        16.8710 
 391   0.0000       0.626792        17.0559 
 392   0.0000       0.630323        17.1520 
 393   0.0000       0.633124        17.2282 
 394   0.0000       0.636355        17.3161 
 395   0.0000       0.643628        17.5140 
 396   0.0000       0.643826        17.5194 
 397   0.0000       0.646549        17.5935 
 398   0.0000       0.648083        17.6352 
 399   0.0000       0.651268        17.7219 
 400   0.0000       0.658481        17.9182 
 401   0.0000       0.658638        17.9225 
 402   0.0000       0.659231        17.9386 
 403   0.0000       0.661892        18.0110 
 404   0.0000       0.666117        18.1260 
 405   0.0000       0.667097        18.1526 
 406   0.0000       0.671786        18.2802 
 407   0.0000       0.674132        18.3441 
 408   0.0000       0.676765        18.4157 
 409   0.0000       0.680690        18.5225 
 410   0.0000       0.681294        18.5390 
 411   0.0000       0.684029        18.6134 
 412   0.0000       0.688013        18.7218 
 413   0.0000       0.690765        18.7967 
 414   0.0000       0.691565        18.8184 
 415   0.0000       0.693353        18.8671 
 416   0.0000       0.694233        18.8911 
 417   0.0000       0.695740        18.9320 
 418   0.0000       0.696733        18.9591 
 419   0.0000       0.701211        19.0809 
 420   0.0000       0.705219        19.1900 
 421   0.0000       0.707857        19.2618 
 422   0.0000       0.708804        19.2875 
[...]
 280   9.314     133.1   0.007481   0.007569  -12.918138  -13.258210     0.03 ( 106-> 119)    0.02 ( 105-> 119)    0.02 ( 107-> 155)
 281   9.318     133.1   0.007377   0.005736  -6.298661  -6.549617     0.04 ( 107-> 147)    0.02 ( 106-> 119)    0.02 (  92-> 114)
 282   9.332     132.9   0.013009   0.010573  12.333677  11.521478     0.02 (  73-> 109)    0.01 ( 102-> 129)    0.01 ( 105-> 127)
 283   9.337     132.8   0.004069   0.004414  -1.178108  -1.245368     0.02 ( 102-> 129)    0.01 (  95-> 122)    0.01 ( 105-> 129)
 284   9.340     132.7   0.007955   0.007757  -12.563891  -11.768824     0.03 ( 104-> 117)    0.02 ( 107-> 158)    0.02 ( 107-> 154)
 285   9.345     132.7   0.008278   0.007444  -11.053830  -10.474888     0.04 (  83-> 118)    0.03 (  81-> 112)    0.03 (  98-> 114)
 286   9.355     132.5   0.018871   0.016149  -8.424861  -7.332332     0.04 ( 106-> 119)    0.03 ( 104-> 119)    0.02 ( 105-> 121)
 287   9.364     132.4   0.038665   0.036792  19.862575  17.739316     0.06 (  98-> 118)    0.05 ( 106-> 119)    0.03 (  98-> 136)
 288   9.375     132.2   0.004033   0.003595  -5.296223  -3.709550     0.03 (  92-> 114)    0.02 ( 103-> 117)    0.02 (  92-> 115)
 289   9.381     132.2   0.005551   0.004350  -5.494813  -5.674216     0.04 ( 102-> 129)    0.02 (  98-> 118)    0.02 (  89-> 108)
 290   9.392     132.0   0.007546   0.006673  -0.401088  -1.674354     0.04 ( 107-> 127)    0.03 ( 107-> 121)    0.03 ( 107-> 124)
 291   9.401     131.9   0.003112   0.002303   8.910005   7.558501     0.05 ( 107-> 127)    0.04 ( 107-> 164)    0.04 ( 107-> 121)
 292   9.404     131.8   0.000581   0.000486   2.739635   0.740870     0.02 (  99-> 127)    0.02 (  83-> 118)    0.01 (  97-> 113)
 293   9.410     131.8   0.013740   0.010490  -13.988594  -12.433124     0.04 ( 107-> 157)    0.03 ( 107-> 158)    0.02 ( 107-> 154)
 294   9.416     131.7   0.049439   0.045695  13.086371  12.542465     0.02 (  91-> 114)    0.02 (  93-> 114)    0.02 (  94-> 110)
 295   9.419     131.6   0.023251   0.020949  -88.676642  -82.852441     0.11 ( 106-> 119)    0.02 ( 105-> 128)    0.02 ( 105-> 119)
 296   9.423     131.6   0.032104   0.029783  53.163233  50.957178     0.05 ( 107-> 127)    0.03 ( 107-> 121)    0.03 ( 107-> 124)
 297   9.432     131.5   0.016379   0.014374  40.930424  37.926458     0.02 (  83-> 118)    0.02 ( 107-> 127)    0.02 ( 105-> 140)
 298   9.434     131.4   0.027950   0.024646  -5.259763  -6.266528     0.03 (  83-> 108)    0.03 (  83-> 118)    0.03 ( 107-> 154)
 299   9.437     131.4   0.009223   0.009509  -21.897935  -22.288532     0.02 (  85-> 118)    0.02 (  84-> 118)    0.01 ( 106-> 119)
 300   9.451     131.2   0.022546   0.019281  40.793542  37.607035     0.02 (  83-> 108)    0.02 ( 107-> 157)    0.02 ( 107-> 164)
 301   9.458     131.1   0.033447   0.028194  -2.537867  -1.076283     0.02 ( 106-> 119)    0.02 ( 107-> 157)    0.02 ( 107-> 164)
 302   9.464     131.0   0.004100   0.003570  -5.344809  -4.815045     0.04 ( 107-> 122)    0.02 (  87-> 109)    0.02 ( 107-> 157)
 303   9.470     130.9   0.006914   0.006337  -4.507549  -4.072694     0.56 ( 107-> 122)    0.05 ( 107-> 121)    0.01 ( 105-> 124)
 304   9.472     130.9   0.022186   0.020316   3.126563   2.703867     0.23 ( 107-> 122)    0.04 ( 107-> 121)    0.02 (  93-> 110)
 305   9.478     130.8   0.001705   0.001531  -11.692196  -11.483836     0.02 ( 107-> 157)    0.02 ( 106-> 131)    0.02 ( 105-> 131)
 306   9.481     130.8   0.024924   0.022560   2.310047   2.340013     0.05 (  80-> 112)    0.02 ( 105-> 120)    0.02 (  84-> 108)
 307   9.490     130.6   0.015121   0.013390  -32.927640  -32.082865     0.02 ( 105-> 124)    0.01 (  98-> 121)    0.01 (  97-> 117)
 308   9.503     130.5   0.009521   0.007852  17.938110  16.281001     0.06 ( 107-> 155)    0.03 ( 107-> 154)    0.02 ( 105-> 124)
 309   9.509     130.4   0.023268   0.019968  32.974662  31.080402     0.04 ( 107-> 155)    0.02 (  96-> 113)    0.02 ( 107-> 154)
 310   9.517     130.3   0.010994   0.009456  11.165996  10.963187     0.03 ( 105-> 124)    0.02 ( 107-> 158)    0.02 (  61-> 108)
 311   9.523     130.2   0.020833   0.019442  68.419962  67.073608     0.02 (  85-> 109)    0.02 ( 104-> 124)    0.01 (  85-> 108)
 312   9.526     130.2   0.037930   0.034080  13.676612  14.930329     0.04 ( 104-> 124)    0.04 ( 105-> 124)    0.01 (  85-> 108)
 313   9.536     130.0   0.038706   0.035088  12.549783  11.935646     0.04 ( 107-> 158)    0.02 ( 107-> 155)    0.02 (  85-> 109)
 314   9.542     129.9   0.026232   0.021930  -40.807526  -37.973468     0.08 ( 107-> 155)    0.02 ( 107-> 153)    0.01 (  60-> 108)
 315   9.548     129.9   0.021860   0.017649  -36.760310  -32.952331     0.04 ( 100-> 134)    0.02 (  94-> 111)    0.01 ( 107-> 158)
 316   9.554     129.8   0.010238   0.009022  22.417074  22.350640     0.03 (  95-> 120)    0.03 (  95-> 116)    0.02 (  93-> 116)
 317   9.560     129.7   0.000634   0.000508  -0.262069   0.834330     0.02 (  94-> 136)    0.02 ( 102-> 130)    0.01 ( 106-> 133)
 318   9.568     129.6   0.019459   0.017732  16.471486  15.633050     0.06 ( 103-> 118)    0.02 ( 105-> 133)    0.02 ( 103-> 120)
 319   9.573     129.5   0.003827   0.003992  -15.726226  -15.510883     0.04 (  86-> 108)    0.02 (  85-> 109)    0.01 (  86-> 111)
 320   9.576     129.5   0.014718   0.012827  33.300251  27.421163     0.02 (  99-> 123)    0.01 ( 103-> 123)    0.01 ( 103-> 117)
 321   9.586     129.3   0.021544   0.019666  46.975620  44.464383     0.03 ( 103-> 118)    0.02 ( 103-> 120)    0.02 ( 102-> 118)
 322   9.588     129.3   0.054514   0.046785  -177.478322  -165.451029     0.02 (  86-> 108)    0.02 (  92-> 117)    0.01 (  97-> 123)
 323   9.595     129.2   0.010124   0.007779  -62.560641  -54.593290     0.02 ( 100-> 127)    0.02 ( 101-> 111)    0.01 ( 102-> 117)
 324   9.598     129.2   0.022225   0.020405  -4.209859  -4.568620     0.02 ( 106-> 162)    0.02 (  94-> 130)    0.01 ( 103-> 118)
 325   9.607     129.1   0.056147   0.046487  -2.518601  -1.967365     0.02 ( 103-> 118)    0.01 ( 107-> 166)    0.01 ( 107-> 158)
 326   9.608     129.0   0.017093   0.015750  -32.308910  -31.529876     0.02 ( 106-> 123)    0.02 (  95-> 111)    0.02 (  94-> 136)
 327   9.612     129.0   0.001069   0.000885  -2.957113  -2.459512     0.04 ( 105-> 119)    0.02 (  99-> 113)    0.02 (  98-> 121)
 328   9.621     128.9   0.028541   0.025452  -38.913732  -36.793180     0.03 (  88-> 110)    0.01 (  92-> 109)    0.01 (  88-> 113)
 329   9.628     128.8   0.056302   0.050722  43.344033  40.468899     0.05 ( 105-> 119)    0.03 ( 100-> 135)    0.02 (  99-> 112)
 330   9.636     128.7   0.006478   0.004114  38.465897  30.796119     0.02 (  94-> 136)    0.02 (  94-> 110)    0.02 ( 106-> 126)
 331   9.644     128.6   0.039635   0.034732   7.696969   9.269113     0.02 ( 103-> 135)    0.02 ( 103-> 119)    0.02 ( 100-> 112)
 332   9.646     128.5   0.001661   0.001456   6.633336   6.463955     0.03 ( 101-> 113)    0.02 (  98-> 124)    0.01 ( 100-> 124)
 333   9.655     128.4   0.043429   0.037072  24.580008  22.262639     0.03 (  70-> 111)    0.03 (  71-> 111)    0.02 (  95-> 110)
 334   9.662     128.3   0.012167   0.010290  -44.045991  -37.439113     0.03 (  82-> 108)    0.02 (  70-> 111)    0.02 (  71-> 111)
 335   9.666     128.3   0.014206   0.011762  18.969793  16.332431     0.02 ( 103-> 118)    0.02 ( 100-> 112)    0.02 ( 100-> 113)
 336   9.671     128.2   0.023919   0.021494  36.916036  34.428043     0.04 ( 104-> 119)    0.02 ( 105-> 119)    0.02 (  94-> 111)
 337   9.679     128.1   0.005839   0.004293  -14.400215  -12.358008     0.04 ( 104-> 122)    0.03 ( 105-> 122)    0.03 ( 106-> 122)
 338   9.681     128.1   0.018923   0.016659  50.787709  47.592021     0.03 (  95-> 111)    0.02 (  95-> 110)    0.02 (  86-> 108)
 339   9.684     128.0   0.014116   0.013013  16.538967  16.470809     0.09 ( 105-> 119)    0.06 ( 104-> 119)    0.02 (  94-> 110)
 340   9.691     127.9   0.013563   0.013019  -19.351803  -18.498108     0.02 ( 100-> 112)    0.02 ( 106-> 126)    0.02 ( 107-> 159)
 341   9.699     127.8   0.002521   0.002273  -29.460569  -27.868650     0.03 (  86-> 108)    0.02 (  71-> 111)    0.02 ( 104-> 119)
 342   9.702     127.8   0.019629   0.017201  -6.579579  -5.902650     0.03 ( 100-> 112)    0.03 (  95-> 111)    0.02 ( 104-> 119)
 343   9.706     127.7   0.014080   0.012347  -10.788293  -9.959331     0.03 (  96-> 112)    0.02 ( 107-> 166)    0.02 ( 107-> 164)
 344   9.708     127.7   0.031171   0.025957  -62.679765  -57.948093     0.04 ( 106-> 123)    0.02 (  82-> 108)    0.02 ( 101-> 113)
 345   9.718     127.6   0.001377   0.001555   2.554229   1.509404     0.04 ( 104-> 119)    0.04 (  82-> 108)    0.02 (  82-> 115)
 346   9.722     127.5   0.004635   0.003634  -4.518026  -4.484409     0.02 (  96-> 112)    0.02 ( 107-> 164)    0.02 (  98-> 113)
 347   9.729     127.4   0.040493   0.035475  -12.178805  -13.202278     0.12 (  82-> 108)    0.07 (  82-> 115)    0.03 (  82-> 111)
 348   9.734     127.4   0.031182   0.026972  -6.674535  -3.879297     0.02 ( 105-> 122)    0.02 ( 100-> 128)    0.02 ( 107-> 158)
 349   9.741     127.3   0.015665   0.013170  10.751536   9.973670     0.07 ( 106-> 123)    0.03 ( 105-> 123)    0.02 (  86-> 108)
 350   9.745     127.2   0.015009   0.014121  -25.132626  -25.688059     0.06 ( 106-> 123)    0.02 ( 106-> 162)    0.01 (  98-> 124)
 351   9.750     127.2   0.003161   0.003313  25.836378  26.175239     0.02 ( 107-> 158)    0.02 (  98-> 124)    0.01 (  91-> 110)
 352   9.754     127.1   0.007541   0.007072  24.370675  23.273447     0.01 ( 107-> 136)    0.01 ( 100-> 128)    0.01 (  97-> 117)
 353   9.761     127.0   0.024871   0.022495  -23.602628  -23.035376     0.03 ( 106-> 123)    0.02 ( 107-> 165)    0.02 (  99-> 113)
 354   9.767     126.9   0.037212   0.032078  76.283965  70.626518     0.03 ( 105-> 135)    0.02 ( 106-> 135)    0.02 ( 107-> 159)
 355   9.774     126.9   0.015971   0.013445  -48.558636  -44.984995     0.09 (  79-> 108)    0.05 (  78-> 108)    0.02 (  79-> 114)
 356   9.780     126.8   0.007602   0.006641  28.576152  26.153730     0.03 (  76-> 108)    0.02 ( 100-> 126)    0.02 (  98-> 124)
 357   9.781     126.8   0.001047   0.001284  -3.149747  -4.705418     0.02 ( 105-> 150)    0.02 ( 106-> 125)    0.02 ( 104-> 150)
 358   9.785     126.7   0.037304   0.033156   2.034218   1.406742     0.02 ( 100-> 124)    0.02 ( 104-> 119)    0.01 ( 100-> 126)
 359   9.792     126.6   0.014170   0.011501  -19.218208  -16.658234     0.02 (  96-> 127)    0.01 ( 102-> 117)    0.01 ( 100-> 112)
 360   9.795     126.6   0.026947   0.022188  41.527657  37.334007     0.03 ( 100-> 126)    0.02 ( 104-> 119)    0.02 ( 100-> 124)
 361   9.800     126.5   0.004448   0.003540   1.799564   1.532913     0.02 (  88-> 114)    0.02 ( 107-> 158)    0.02 (  86-> 114)
 362   9.805     126.4   0.022567   0.021158   9.020435  10.630029     0.03 (  95-> 111)    0.02 (  88-> 114)    0.01 ( 104-> 122)
 363   9.813     126.3   0.012919   0.011029   9.173914   8.424119     0.05 ( 106-> 162)    0.03 ( 106-> 163)    0.02 ( 105-> 162)
 364   9.819     126.3   0.001854   0.001552  -8.589386  -8.390147     0.03 (  96-> 112)    0.03 (  97-> 112)    0.02 (  96-> 113)
 365   9.826     126.2   0.005420   0.004363   1.686146   1.421915     0.04 ( 104-> 119)    0.03 ( 103-> 119)    0.03 (  90-> 123)
 366   9.827     126.2   0.002120   0.001966  12.660743  11.924046     0.02 (  99-> 115)    0.02 ( 102-> 139)    0.01 ( 105-> 162)
 367   9.828     126.2   0.002529   0.002724   2.153220   2.445871     0.05 ( 107-> 165)    0.02 ( 105-> 123)    0.02 ( 103-> 119)
 368   9.830     126.1   0.000481   0.000434   2.628155   1.620218     0.02 ( 105-> 163)    0.02 ( 102-> 139)    0.02 ( 105-> 156)
 369   9.843     126.0   0.020430   0.017452  -17.192727  -15.323992     0.04 ( 107-> 165)    0.02 ( 106-> 125)    0.02 ( 107-> 129)
 370   9.849     125.9   0.028073   0.026338   1.905684   2.000018     0.02 ( 103-> 131)    0.02 (  99-> 125)    0.02 (  99-> 123)
 371   9.853     125.8   0.018161   0.015571  -3.954798  -3.934100     0.03 (  90-> 109)    0.02 (  68-> 109)    0.02 (  86-> 114)
 372   9.861     125.7   0.020977   0.017876  -29.740890  -28.282480     0.02 ( 107-> 165)    0.01 (  76-> 108)    0.01 (  91-> 115)
 373   9.865     125.7   0.002164   0.001779   4.762047   4.724221     0.03 ( 100-> 112)    0.01 (  92-> 117)    0.01 (  76-> 108)
 374   9.869     125.6   0.005277   0.004697  20.103477  18.858780     0.03 ( 103-> 120)    0.03 (  96-> 113)    0.02 (  95-> 110)
 375   9.879     125.5   0.010453   0.007948   7.953242   7.364554     0.02 (  90-> 114)    0.01 ( 106-> 126)    0.01 ( 100-> 112)
 376   9.885     125.4   0.003714   0.003306  11.438268  10.798102     0.04 ( 107-> 161)    0.02 (  69-> 110)    0.02 (  97-> 126)
 377   9.889     125.4   0.007397   0.005586  -20.078770  -16.302909     0.03 ( 103-> 120)    0.02 ( 103-> 118)    0.02 (  94-> 112)
 378   9.896     125.3   0.014412   0.012694   7.983740   5.736968     0.03 ( 106-> 126)    0.02 ( 103-> 118)    0.02 (  96-> 117)
 379   9.897     125.3   0.042634   0.038635  -20.524052  -18.763236     0.04 ( 106-> 125)    0.03 ( 105-> 123)    0.02 ( 106-> 123)
 380   9.909     125.1   0.002643   0.002204  -5.874355  -3.679735     0.02 (  98-> 113)    0.02 ( 100-> 112)    0.02 ( 106-> 125)
 381   9.911     125.1   0.010404   0.011738  23.893080  18.536708     0.01 (  68-> 109)    0.01 (  69-> 110)    0.01 (  69-> 114)
 382   9.919     125.0   0.005733   0.005150  -10.503512  -10.037057     0.03 (  98-> 113)    0.02 (  94-> 111)    0.02 (  93-> 114)
 383   9.924     124.9   0.030921   0.026270  -2.743307  -2.229551     0.02 (  96-> 117)    0.02 ( 107-> 161)    0.02 ( 106-> 126)
 384   9.929     124.9   0.007610   0.005875  16.641277  14.104016     0.03 ( 105-> 123)    0.02 ( 102-> 116)    0.02 ( 104-> 119)
 385   9.936     124.8   0.011666   0.011393  37.591417  37.003530     0.03 ( 104-> 162)    0.02 ( 107-> 161)    0.02 (  91-> 136)
 386   9.942     124.7   0.003087   0.002522   1.231971   0.353467     0.07 (  98-> 113)    0.04 (  82-> 110)    0.03 ( 106-> 125)
 387   9.946     124.7   0.002295   0.001512  -11.973087  -9.441453     0.02 (  97-> 112)    0.02 ( 104-> 162)    0.01 (  95-> 110)
 388   9.954     124.6   0.044046   0.037728  -52.051700  -47.654855     0.03 (  69-> 110)    0.03 ( 107-> 160)    0.02 ( 100-> 116)
 389   9.955     124.5   0.018534   0.015892   9.572539   8.836907     0.12 (  82-> 110)    0.04 (  82-> 113)    0.03 (  82-> 112)
 390   9.963     124.5   0.004882   0.004380  -3.631877  -2.966393     0.09 ( 107-> 129)    0.02 ( 103-> 120)    0.01 ( 107-> 130)
 391   9.969     124.4   0.045525   0.042635  -44.309051  -41.980378     0.04 ( 106-> 125)    0.02 ( 105-> 125)    0.01 ( 104-> 123)
 392   9.970     124.4   0.029169   0.025221   3.470675   3.713012     0.04 ( 100-> 116)    0.04 ( 107-> 165)    0.02 ( 107-> 129)
 393   9.981     124.2   0.008155   0.007490  21.505942  18.446754     0.02 ( 105-> 126)    0.02 ( 106-> 126)    0.01 ( 107-> 129)
 394   9.982     124.2   0.012952   0.011639  -6.076342  -5.663113     0.03 ( 106-> 126)    0.03 (  95-> 111)    0.03 ( 106-> 125)
 395   9.984     124.2   0.008242   0.007776  18.332640  16.891734     0.04 ( 105-> 123)    0.04 ( 107-> 129)    0.03 ( 104-> 123)
 396   9.994     124.1   0.030759   0.028826   3.718858   4.626096     0.02 ( 104-> 162)    0.02 ( 107-> 129)    0.01 (  98-> 114)
 397   9.998     124.0   0.025768   0.021210  21.196929  18.069893     0.04 (  62-> 109)    0.04 (  81-> 108)    0.03 (  62-> 108)
 398  10.000     124.0   0.012820   0.010754  -15.154629  -13.794450     0.04 (  82-> 110)    0.03 ( 102-> 115)    0.02 (  90-> 111)

sTD-DFT done

Total run time:      154.930 sec

           *** ORCA-CIS/TD-DFT FINISHED WITHOUT ERROR ***


-------------------------------------------------------------------------------
                          DFT DISPERSION CORRECTION                            
                                                                               
                              DFTD3 V3.1  Rev 1                                
                              USING zero damping                               
-------------------------------------------------------------------------------
The omegaB97X-D3 functional is recognized. Fit by Chai et al.
Active option DFTDOPT                   ...         3   

molecular C6(AA) [au] = 79915.336282 


            DFT-D V3
 parameters
 s6 scaling factor         :     1.0000 
 rs6 scaling factor        :     1.2810 
 s8 scaling factor         :     1.0000 
 rs8 scaling factor        :     1.0940 
 Damping factor alpha6     :    14.0000 
 Damping factor alpha8     :    16.0000 
 ad hoc parameters k1-k3   :    16.0000     1.3333    -4.0000 

 Edisp/kcal,au: -27.479845526206  -0.043791916665 
 E6   /kcal   : -13.443010311 
 E8   /kcal   : -14.036835215 
 % E8         :  51.080473513 

-------------------------   ----------------
Dispersion correction           -0.043791917
-------------------------   ----------------


-------------------------   --------------------
FINAL SINGLE POINT ENERGY     -2604.733151405349
-------------------------   --------------------


                            ***************************************
                            *     ORCA property calculations      *
                            ***************************************

                                    ---------------------
                                    Active property flags
                                    ---------------------
   (+) Dipole Moment
   (+) Quadrupole Moment


------------------------------------------------------------------------------
                       ORCA ELECTRIC PROPERTIES CALCULATION
------------------------------------------------------------------------------

Dipole Moment Calculation                       ... on
Quadrupole Moment Calculation                   ... on
Polarizability Calculation                      ... off
GBWName                                         ... total_job2.gbw
Electron density file                           ... total_job2.scfp.tmp

-------------
DIPOLE MOMENT
-------------
                                X             Y             Z
Electronic contribution:     72.72362      -4.52658      13.57081
Nuclear contribution   :    -74.60425       3.97450     -15.57110
                        -----------------------------------------
Total Dipole Moment    :     -1.88063      -0.55208      -2.00028
                        -----------------------------------------
Magnitude (a.u.)       :      2.80048
Magnitude (Debye)      :      7.11826


------------------------
QUADRUPOLE MOMENT (A.U.)
------------------------

                XX           YY           ZZ           XY           XZ           YZ
  NUC     36956.58106   4696.16762   3535.67947  -2128.13223  -3727.33915  -2915.22424
  EL     -37072.41565  -4893.32928  -3738.35995   2117.83365   3740.14765   2901.68504
  TOT      -115.83459   -197.16166   -202.68048    -10.29858     12.80851    -13.53920

--------------------------------------------------------------------------
[[21790,1],1]: A high-performance Open MPI point-to-point messaging module
was unable to find any relevant network interfaces:

Module: OpenFabrics (openib)
  Host: cx1-136-8-4

Another transport will be used instead, although this may result in
lower performance.
--------------------------------------------------------------------------

Timings for individual modules:

Sum of individual times         ...      533.693 sec (=   8.895 min)
GTO integral calculation        ...       13.778 sec (=   0.230 min)   2.6 %
SCF iterations                  ...      355.833 sec (=   5.931 min)  66.7 %
CIS module                      ...      164.082 sec (=   2.735 min)  30.7 %



                             ****ORCA TERMINATED NORMALLY****
TOTAL RUN TIME: 0 days 0 hours 29 minutes 59 seconds 219 msec
