   44
Geometry Step: 1809
    C     -5.62217992      0.96708296      2.33945861      4.11464477
    C     -4.79258327      0.38976735      1.38180113      4.07989787
    C     -5.34833039     -0.49385595      0.43673440      4.03067134
    C     -6.74277816     -0.76983095      0.50706522      3.86732558
    C     -7.58231207     -0.18396361      1.46683129      4.16523469
    C     -7.00001010      0.68983136      2.38134000      4.06712704
    C     -4.82364291     -1.28903414     -0.66269658      4.04204521
    C     -5.93341826     -2.01845405     -1.18468438      3.86841560
    N     -7.07408337     -1.67976504     -0.48167089      5.17485331
    C     -5.81982478     -2.94132052     -2.23471847      4.16021913
    C     -4.54977180     -3.15127585     -2.76791283      4.07324790
    C     -3.44037043     -2.45259548     -2.27635162      4.13610938
    C     -3.54156131     -1.50348137     -1.24052772      3.97697211
    H     -2.46738174     -2.63119005     -2.72850498      0.91585520
    H     -7.99701687     -2.06372342     -0.64333038      0.78438297
    H     -4.41477391     -3.86257216     -3.57763124      0.91718494
    H     -3.73247751      0.62502137      1.36707635      0.89583524
    H     -8.64508726     -0.40888774      1.49647402      0.91836076
    H     -7.61827006      1.16289027      3.13968626      0.92189728
    H     -5.19819034      1.65054220      3.06994721      0.91875607
    S      2.56316637     -0.88330491     -0.66602275      6.07049616
    C      3.75043091      0.30273919     -0.08198662      3.81060506
    N      3.19292318      1.41369773      0.38735625      5.17389426
    N      1.83120987      1.41394037      0.32417570      5.15320420
    C      1.32481542      0.30362099     -0.19481224      3.83462143
    C     -0.08928980      0.04981795     -0.37223664      3.83586867
    N     -1.04951997      0.90385465     -0.04445625      5.16042350
    N     -2.30486463      0.43347388     -0.30763607      5.18361705
    C     -2.33281990     -0.78179932     -0.83217308      3.80192632
    S     -0.69963192     -1.46232940     -1.06499584      6.06973902
    S     10.51782856      0.36791833      0.26212478      6.02616124
    C      8.95182053      1.18191169      0.55225568      3.96559132
    S      9.10909488      2.80565446      1.28365341      6.01735472
    C     10.88048148      2.78622666      1.35731140      4.08719501
    C     11.51435036      1.69051494      0.89818286      4.08741476
    C      7.75396271      0.62187035      0.24676815      3.99158610
    S      6.18635928      1.43585998      0.53676924      6.01967131
    C      5.18209303      0.10472884     -0.10362152      3.97582512
    C      5.83914589     -0.99570447     -0.56370490      4.10685538
    S      7.59726794     -1.00434061     -0.48567938      6.00268617
    H     11.39193943      3.65071064      1.76654869      0.89470509
    H      5.32754464     -1.86152765     -0.97359329      0.89172976
    H     -6.68700394     -3.47803864     -2.60895637      0.91476330
    H     12.59266018      1.57381917      0.89624339      0.89502864
