   44
Geometry Step: 989
    C     -4.84153957      2.45766042     -0.65317239      4.11562840
    C     -3.89458428      1.47080774     -0.38866320      4.08654785
    C     -4.31128220      0.13000366     -0.29660462      4.03235396
    C     -5.68470381     -0.17248669     -0.51598711      3.86656246
    C     -6.64183411      0.82078203     -0.77383615      4.16403776
    C     -6.19959530      2.14046541     -0.83233972      4.07159646
    C     -3.63792120     -1.14012546     -0.07983788      4.06322852
    C     -4.63578233     -2.14651369     -0.21933437      3.86466447
    N     -5.85972652     -1.54422902     -0.45303452      5.17662970
    C     -4.34691511     -3.51819319     -0.14912033      4.17307552
    C     -3.01541444     -3.88036387      0.04766634      4.07051452
    C     -2.01517806     -2.91040211      0.20170866      4.14328705
    C     -2.29695124     -1.53226624      0.17187607      3.94189536
    H     -0.99190552     -3.23127806      0.38090087      0.91543661
    H     -6.73283012     -2.03329162     -0.60744338      0.78516747
    H     -2.74636404     -4.93205945      0.09410089      0.91950830
    H     -2.84922569      1.74251621     -0.27479239      0.91225773
    H     -7.68686145      0.56801214     -0.93219817      0.91857572
    H     -6.91216714      2.93637079     -1.03178305      0.92226803
    H     -4.52610725      3.49487093     -0.72539311      0.92025104
    N      3.22522985      0.42777206     -0.01931336      5.33835863
    C      2.27894822      1.14765480      0.69492233      3.85409840
    C      2.75826854      2.29136648      1.31621528      4.14274665
    S      4.45860662      2.48234351      1.00087506      5.98328305
    C      4.42257974      0.98947498      0.03692929      3.78957530
    C      0.90717574      0.67049904      0.73814289      3.80490321
    S      0.43065430     -0.80940972     -0.11112273      6.01030774
    C     -1.22248685     -0.56978590      0.44656252      4.00238398
    C     -1.27275811      0.57021127      1.22985295      3.98293986
    N     -0.09025062      1.25644074      1.38601508      5.32407679
    H      2.18529544      2.98524601      1.91694715      0.87917760
    H     -2.16568448      0.91960656      1.74333769      0.91487273
    N      9.07387929      1.37177901     -0.91617281      5.13296222
    C      8.02357519      0.56615939     -1.17018590      3.91947010
    C      6.88313442      1.11726402     -0.51585538      3.88773205
    N      7.26418281      2.23926287      0.11756270      5.14586190
    O      8.58789137      2.36634820     -0.14174878      5.90887817
    C      5.61300988      0.46373104     -0.61382498      4.04255781
    C      5.60322638     -0.70468181     -1.37357838      3.92706488
    N      6.70239220     -1.23730849     -2.00507357      5.27563534
    C      7.88533690     -0.64206396     -1.92256545      3.90825212
    H      4.66668482     -1.25586642     -1.49121633      0.91884955
    H     -5.12698812     -4.26595165     -0.25995335      0.91574541
    H      8.73498586     -1.10027197     -2.44106438      0.92677959
