   47
Geometry Step: 1172
    C     -2.65109512      2.73787022     -0.49963197      4.11830460
    C     -2.49816940      1.35542098     -0.42552759      4.08762155
    C     -3.61280520      0.55271322     -0.11459228      4.02849496
    C     -4.86833748      1.19708808      0.07720356      3.86697486
    C     -5.02553832      2.58973344      0.00807298      4.16428079
    C     -3.89576506      3.35197745     -0.27748763      4.06952920
    C     -3.85539032     -0.87698478      0.02479749      4.05499590
    C     -5.25519083     -1.01468406      0.26020946      3.86452628
    N     -5.83753818      0.23819828      0.30868151      5.17543393
    C     -5.89639178     -2.25561655      0.39291009      4.17096440
    C     -5.10657518     -3.39745598      0.27551215      4.06892523
    C     -3.72663892     -3.29774784      0.06313411      4.14532052
    C     -3.06297957     -2.05846405     -0.04560234      3.98211834
    H     -3.13843699     -4.20973543      0.00725971      0.91901334
    H     -6.82325986      0.42022668      0.45185197      0.78486086
    H     -5.56182640     -4.37993557      0.36280019      0.91908234
    H     -1.52475216      0.91731185     -0.61835561      0.91034455
    H     -5.99583732      3.05349164      0.16436243      0.91838621
    H     -3.97833669      4.43366885     -0.33996709      0.92164067
    H     -1.78985602      3.35629004     -0.73748806      0.92063620
    O      2.70144827     -0.49604042      0.08763370      6.18644934
    C      1.38810046     -0.23797774      0.26376611      3.80281465
    C      1.22838953      1.06722923      0.71888576      4.21140037
    C      2.52880548      1.61236356      0.81781098      4.19524181
    C      3.40878680      0.61271635      0.41837096      3.78936958
    C      0.43062115     -1.27312276     -0.03332523      3.82298526
    C      0.56255938     -2.57228019     -0.50800813      4.20109759
    C     -0.75076163     -3.09175942     -0.60251549      4.21757059
    C     -1.60981682     -2.07814515     -0.19300443      3.77737953
    O     -0.88016445     -0.99883585      0.15180518      6.17611660
    H     -1.03054811     -4.07633425     -0.94852645      0.88957143
    H      1.48623011     -3.07609127     -0.75282996      0.88740979
    H      2.79413056      2.60892362      1.13995892      0.88038170
    H      0.29218330      1.55576372      0.94826032      0.88317402
    N      7.59126753      2.84820157      0.89667574      5.15882752
    C      7.09896383      1.65230143      0.52343671      3.86825605
    C      5.67351529      1.70842706      0.63848967      3.89582582
    N      5.34306861      2.93527060      1.07759886      5.16171697
    O      6.51386248      3.59902027      1.22435106      5.91893286
    C      4.85238286      0.57399568      0.30813963      4.00655619
    C      5.53439360     -0.56185063     -0.12392745      4.12302229
    C      6.95218454     -0.60817991     -0.23510221      4.07927551
    C      7.75477042      0.46842094      0.07686311      4.12981456
    H      7.40686855     -1.53337220     -0.58021012      0.91662691
    H      4.96357294     -1.44835003     -0.38683049      0.90970693
    H     -6.96604534     -2.32073414      0.57013802      0.91542101
    H      8.83575149      0.41707342     -0.01334787      0.90360040
