
                                 *****************
                                 * O   R   C   A *
                                 *****************

           --- An Ab Initio, DFT and Semiempirical electronic structure package ---

                  #######################################################
                  #                        -***-                        #
                  #  Department of molecular theory and spectroscopy    #
                  #              Directorship: Frank Neese              #
                  # Max Planck Institute for Chemical Energy Conversion #
                  #                  D-45470 Muelheim/Ruhr              #
                  #                       Germany                       #
                  #                                                     #
                  #                  All rights reserved                #
                  #                        -***-                        #
                  #######################################################


                         Program Version 4.0.0 -  RELEASE  -


 With contributions from (in alphabetic order):
   Daniel Aravena         : Magnetic Properties
   Michael Atanasov       : Ab Initio Ligand Field Theory
   Ute Becker             : Parallelization
   Martin Brehm           : Molecular dynamics
   Dmytro Bykov           : SCF Hessian
   Vijay G. Chilkuri      : MRCI spin determinant printing
   Dipayan Datta          : RHF DLPNO-CCSD density
   Achintya Kumar Dutta   : EOM-CC, STEOM-CC
   Dmitry Ganyushin       : Spin-Orbit,Spin-Spin,Magnetic field MRCI
   Yang Guo               : DLPNO-NEVPT2, CIM, IAO-localization
   Andreas Hansen         : Spin unrestricted coupled pair/coupled cluster methods
   Lee Huntington         : MR-EOM, pCC
   Robert Izsak           : Overlap fitted RIJCOSX, COSX-SCS-MP3, EOM
   Christian Kollmar      : KDIIS, OOCD, Brueckner-CCSD(T), CCSD density
   Simone Kossmann        : Meta GGA functionals, TD-DFT gradient, OOMP2, MP2 Hessian
   Martin Krupicka        : AUTO-CI
   Dagmar Lenk            : GEPOL surface
   Dimitrios Liakos       : Extrapolation schemes; parallel MDCI
   Dimitrios Manganas     : ROCIS; embedding schemes
   Dimitrios Pantazis     : SARC Basis sets
   Taras Petrenko         : DFT Hessian,TD-DFT gradient, ASA, ECA, R-Raman, ABS, FL, XAS/XES, NRVS
   Peter Pinski           : DLPNO-MP2
   Christoph Reimann      : Effective Core Potentials
   Marius Retegan         : Local ZFS, SOC
   Christoph Riplinger    : Optimizer, TS searches, QM/MM, DLPNO-CCSD(T), (RO)-DLPNO pert. Triples
   Tobias Risthaus        : Range-separated hybrids, TD-DFT gradient, RPA, STAB
   Michael Roemelt        : Restricted open shell CIS
   Masaaki Saitow         : Open-shell DLPNO
   Barbara Sandhoefer     : DKH picture change effects
   Kantharuban Sivalingam : CASSCF convergence, NEVPT2, FIC-MRCI
   Georgi Stoychev        : AutoAux
   Boris Wezisla          : Elementary symmetry handling
   Frank Wennmohs         : Technical directorship


 We gratefully acknowledge several colleagues who have allowed us to
 interface, adapt or use parts of their codes:
   Stefan Grimme, W. Hujo, H. Kruse,             : VdW corrections, initial TS optimization,
                  C. Bannwarth                     DFT functionals, gCP, sTDA/sTD-DF
   Ed Valeev                                     : LibInt (2-el integral package), F12 methods
   Garnet Chan, S. Sharma, J. Yang, R. Olivares  : DMRG
   Ulf Ekstrom                                   : XCFun DFT Library
   Mihaly Kallay                                 : mrcc  (arbitrary order and MRCC methods)
   Jiri Pittner, Ondrej Demel                    : Mk-CCSD
   Frank Weinhold                                : gennbo (NPA and NBO analysis)
   Christopher J. Cramer and Donald G. Truhlar   : smd solvation model


 Your calculation uses the libint2 library for the computation of 2-el integrals
 For citations please refer to: http://libint.valeyev.net

 This ORCA versions uses:
   CBLAS   interface :  Fast vector & matrix operations
   LAPACKE interface :  Fast linear algebra routines
   SCALAPACK package :  Parallel linear algebra routines


Your calculation utilizes the atom-pairwise dispersion correction
with the zero-damping scheme (D30)
Cite in your paper:
S.Grimme, J.Antony, S.Ehrlich and H.Krieg, J.Chem.Phys., 132, (2010), 154104 
   

XCFun DFT library Copyright 2009-2010 Ulf Ekstrom and contributors.
See http://admol.org/xcfun for more information. This is free soft-
ware; see the source code for copying conditions. There is ABSOLUTELY
NO WARRANTY; not even for MERCHANTABILITY or FITNESS FOR A PARTICULAR
PURPOSE. For details see the documentation. Scientific users of this 
library should cite U. Ekstrom, L. Visscher, R. Bast, A. J. Thorvald-
sen and K. Ruud; J.Chem.Theor.Comp. 2010, DOI: 10.1021/ct100117s
XCFun Version 0.99 
Your calculation utilizes the basis: def2-TZVP
   F. Weigend and R. Ahlrichs, Phys. Chem. Chem. Phys. 7, 3297 (2005).

Your calculation utilizes the auxiliary basis: def2/J
   F. Weigend, Phys. Chem. Chem. Phys. 8, 1057 (2006).

================================================================================
                                        WARNINGS
                       Please study these warnings very carefully!
================================================================================

Warning: TCutStore was < 0. Adjusted to Thresh (uncritical)
INFO   : Checking CIS options ...

WARNING: CIS/ROCIS methods need fully converged wavefunctions
  ===> : Setting SCFConvForced true
         You can overwrite this default with %scf ConvForced false 


INFO   : the flag for use of LIBINT has been found!

Your calculation utilizes the atom-pairwise dispersion correction
with the zero-damping scheme (D30)
Cite in your paper:
S.Grimme, J.Antony, S.Ehrlich and H.Krieg, J.Chem.Phys., 132, (2010), 154104 
   

XCFun DFT library Copyright 2009-2010 Ulf Ekstrom and contributors.
See http://admol.org/xcfun for more information. This is free soft-
ware; see the source code for copying conditions. There is ABSOLUTELY
NO WARRANTY; not even for MERCHANTABILITY or FITNESS FOR A PARTICULAR
PURPOSE. For details see the documentation. Scientific users of this 
library should cite U. Ekstrom, L. Visscher, R. Bast, A. J. Thorvald-
sen and K. Ruud; J.Chem.Theor.Comp. 2010, DOI: 10.1021/ct100117s
XCFun Version 0.99 
Your calculation utilizes the basis: def2-TZVP
   F. Weigend and R. Ahlrichs, Phys. Chem. Chem. Phys. 7, 3297 (2005).

Your calculation utilizes the auxiliary basis: def2/J
   F. Weigend, Phys. Chem. Chem. Phys. 8, 1057 (2006).

================================================================================
                                        WARNINGS
                       Please study these warnings very carefully!
================================================================================

INFO   : Checking CIS options ...

INFO   : the flag for use of LIBINT has been found!

================================================================================
                                       INPUT FILE
================================================================================
NAME = total.inp
|  1> # 
|  2> !wB97X-D3 def2-TZVP def2/J RIJCOSX Grid5 FinalGrid6 TightSCF
|  3> %pal 
|  4>  nprocs 24
|  5> end
|  6> %tddft
|  7>   Mode sTDDFT
|  8>   nroots 2
|  9>   Ethresh 10.0
| 10>   maxcore 5000
| 11>   triplets true
| 12> end
| 13> * xyz 0 1 
| 14> C -6.68345776 -0.51598913 -2.87286568
| 15> C -5.45587769 -0.42244094 -2.26463371
| 16> C -5.36278856 -0.13431164 -0.86481073
| 17> C -6.57623806 0.06525722 -0.11027168
| 18> C -7.83583848 -0.04220362 -0.78470253
| 19> C -7.88134727 -0.32623424 -2.12719106
| 20> N -4.14410745 -0.05273234 -0.27505544
| 21> C -4.10265680 0.21596769 1.05069744
| 22> C -5.32125666 0.44776812 1.79760761
| 23> N -6.54095405 0.36522030 1.21080630
| 24> C -5.23848846 0.77890787 3.18793756
| 25> C -4.01239180 0.88038582 3.79855567
| 26> C -2.81540488 0.64610720 3.07492700
| 27> C -2.82587329 0.30630245 1.73100506
| 28> H -1.86765205 0.71386799 3.60288202
| 29> H -3.94669362 1.13329291 4.85374499
| 30> H -6.15551935 0.94794685 3.74582476
| 31> H -8.83839298 -0.40754467 -2.63637606
| 32> H -4.54162216 -0.56917966 -2.83453996
| 33> H -6.75175119 -0.73748950 -3.93493905
| 34> S 2.65991885 1.82967070 1.99716150
| 35> C 2.14651191 0.68146370 0.76306004
| 36> C 3.21963103 0.29638003 -0.01555555
| 37> C 4.45906696 0.91449800 0.35828499
| 38> C 4.30663685 1.77849040 1.42875233
| 39> C 0.76843875 0.25565447 0.64894050
| 40> C -0.30885967 0.64599451 1.41826265
| 41> C -1.55336306 0.04395073 1.02950079
| 42> C -1.39810477 -0.81949257 -0.04065301
| 43> S 0.25784627 -0.89990054 -0.57923101
| 44> H -0.21755637 1.36769535 2.22413254
| 45> H 3.12185533 -0.39635818 -0.84424567
| 46> H -2.16927657 -1.41927917 -0.50556331
| 47> H 5.08726580 2.34818672 1.91699046
| 48> C 8.22996107 0.46179173 -1.58469721
| 49> N 7.91651358 1.60526418 -0.97995459
| 50> C 6.70275818 1.71084172 -0.36976701
| 51> C 5.75082401 0.69207409 -0.32357456
| 52> C 6.08185923 -0.55110742 -0.95784850
| 53> C 7.34913451 -0.65884009 -1.60828361
| 54> N 5.22434180 -1.62482464 -0.92034818
| 55> C 5.61957503 -2.73166152 -1.53651690
| 56> C 6.87172237 -2.82686598 -2.20805399
| 57> N 7.73258468 -1.81774435 -2.24289095
| 58> H 6.48134075 2.67658715 0.09653411
| 59> H 4.94353973 -3.59536023 -1.50890333
| 60> H 7.15838696 -3.75842862 -2.71066209
| 61> H -8.75161226 0.10412427 -0.21743572
| 62> H 9.20727162 0.39419689 -2.07603723
| 63> *
| 64> $new_job
| 65> # 
| 66> !wB97X-D3 def2-TZVP def2/J RIJCOSX Grid5 FinalGrid6 TightSCF
| 67> %pal 
| 68>  nprocs 24
| 69> end
| 70> %elprop
| 71>    dipole     true
| 72>    quadrupole true
| 73> end
| 74> %tddft
| 75>   Mode sTDDFT
| 76>   nroots 2
| 77>   Ethresh 10.0
| 78>   maxcore 5000
| 79> end
| 80> * xyz 0 1 
| 81> C -6.68345776 -0.51598913 -2.87286568
| 82> C -5.45587769 -0.42244094 -2.26463371
| 83> C -5.36278856 -0.13431164 -0.86481073
| 84> C -6.57623806 0.06525722 -0.11027168
| 85> C -7.83583848 -0.04220362 -0.78470253
| 86> C -7.88134727 -0.32623424 -2.12719106
| 87> N -4.14410745 -0.05273234 -0.27505544
| 88> C -4.10265680 0.21596769 1.05069744
| 89> C -5.32125666 0.44776812 1.79760761
| 90> N -6.54095405 0.36522030 1.21080630
| 91> C -5.23848846 0.77890787 3.18793756
| 92> C -4.01239180 0.88038582 3.79855567
| 93> C -2.81540488 0.64610720 3.07492700
| 94> C -2.82587329 0.30630245 1.73100506
| 95> H -1.86765205 0.71386799 3.60288202
| 96> H -3.94669362 1.13329291 4.85374499
| 97> H -6.15551935 0.94794685 3.74582476
| 98> H -8.83839298 -0.40754467 -2.63637606
| 99> H -4.54162216 -0.56917966 -2.83453996
|100> H -6.75175119 -0.73748950 -3.93493905
|101> S 2.65991885 1.82967070 1.99716150
|102> C 2.14651191 0.68146370 0.76306004
|103> C 3.21963103 0.29638003 -0.01555555
|104> C 4.45906696 0.91449800 0.35828499
|105> C 4.30663685 1.77849040 1.42875233
|106> C 0.76843875 0.25565447 0.64894050
|107> C -0.30885967 0.64599451 1.41826265
|108> C -1.55336306 0.04395073 1.02950079
|109> C -1.39810477 -0.81949257 -0.04065301
|110> S 0.25784627 -0.89990054 -0.57923101
|111> H -0.21755637 1.36769535 2.22413254
|112> H 3.12185533 -0.39635818 -0.84424567
|113> H -2.16927657 -1.41927917 -0.50556331
|114> H 5.08726580 2.34818672 1.91699046
|115> C 8.22996107 0.46179173 -1.58469721
|116> N 7.91651358 1.60526418 -0.97995459
|117> C 6.70275818 1.71084172 -0.36976701
|118> C 5.75082401 0.69207409 -0.32357456
|119> C 6.08185923 -0.55110742 -0.95784850
|120> C 7.34913451 -0.65884009 -1.60828361
|121> N 5.22434180 -1.62482464 -0.92034818
|122> C 5.61957503 -2.73166152 -1.53651690
|123> C 6.87172237 -2.82686598 -2.20805399
|124> N 7.73258468 -1.81774435 -2.24289095
|125> H 6.48134075 2.67658715 0.09653411
|126> H 4.94353973 -3.59536023 -1.50890333
|127> H 7.15838696 -3.75842862 -2.71066209
|128> H -8.75161226 0.10412427 -0.21743572
|129> H 9.20727162 0.39419689 -2.07603723
|130> *
|131> 
|132>                          ****END OF INPUT****
================================================================================


                 $$$$$$$$$$$$$$$$$$$$$$$$$$$$$$$$$$$$$$$$$$$$$$ 
                 $ THERE ARE  2 JOBS TO BE PROCESSED THIS RUN $
                 $$$$$$$$$$$$$$$$$$$$$$$$$$$$$$$$$$$$$$$$$$$$$$ 




                 $$$$$$$$$$$$$$$$  JOB NUMBER  1 $$$$$$$$$$$$$$


                       ****************************
                       * Single Point Calculation *
                       ****************************

---------------------------------
CARTESIAN COORDINATES (ANGSTROEM)
---------------------------------
  C     -6.683458   -0.515989   -2.872866
  C     -5.455878   -0.422441   -2.264634
  C     -5.362789   -0.134312   -0.864811
  C     -6.576238    0.065257   -0.110272
  C     -7.835838   -0.042204   -0.784703
  C     -7.881347   -0.326234   -2.127191
  N     -4.144107   -0.052732   -0.275055
  C     -4.102657    0.215968    1.050697
  C     -5.321257    0.447768    1.797608
  N     -6.540954    0.365220    1.210806
  C     -5.238488    0.778908    3.187938
  C     -4.012392    0.880386    3.798556
  C     -2.815405    0.646107    3.074927
  C     -2.825873    0.306302    1.731005
  H     -1.867652    0.713868    3.602882
  H     -3.946694    1.133293    4.853745
  H     -6.155519    0.947947    3.745825
  H     -8.838393   -0.407545   -2.636376
  H     -4.541622   -0.569180   -2.834540
  H     -6.751751   -0.737490   -3.934939
  S      2.659919    1.829671    1.997161
  C      2.146512    0.681464    0.763060
  C      3.219631    0.296380   -0.015556
  C      4.459067    0.914498    0.358285
  C      4.306637    1.778490    1.428752
  C      0.768439    0.255654    0.648941
  C     -0.308860    0.645995    1.418263
  C     -1.553363    0.043951    1.029501
  C     -1.398105   -0.819493   -0.040653
  S      0.257846   -0.899901   -0.579231
  H     -0.217556    1.367695    2.224133
  H      3.121855   -0.396358   -0.844246
  H     -2.169277   -1.419279   -0.505563
  H      5.087266    2.348187    1.916990
  C      8.229961    0.461792   -1.584697
  N      7.916514    1.605264   -0.979955
  C      6.702758    1.710842   -0.369767
  C      5.750824    0.692074   -0.323575
  C      6.081859   -0.551107   -0.957848
  C      7.349135   -0.658840   -1.608284
  N      5.224342   -1.624825   -0.920348
  C      5.619575   -2.731662   -1.536517
  C      6.871722   -2.826866   -2.208054
  N      7.732585   -1.817744   -2.242891
  H      6.481341    2.676587    0.096534
  H      4.943540   -3.595360   -1.508903
  H      7.158387   -3.758429   -2.710662
  H     -8.751612    0.104124   -0.217436
  H      9.207272    0.394197   -2.076037

----------------------------
CARTESIAN COORDINATES (A.U.)
----------------------------
  NO LB      ZA    FRAG     MASS         X           Y           Z
   0 C     6.0000    0    12.011  -12.629905   -0.975078   -5.428929
   1 C     6.0000    0    12.011  -10.310115   -0.798298   -4.279538
   2 C     6.0000    0    12.011  -10.134202   -0.253812   -1.634255
   3 C     6.0000    0    12.011  -12.427289    0.123318   -0.208383
   4 C     6.0000    0    12.011  -14.807589   -0.079753   -1.482873
   5 C     6.0000    0    12.011  -14.893588   -0.616493   -4.019809
   6 N     7.0000    0    14.007   -7.831228   -0.099650   -0.519779
   7 C     6.0000    0    12.011   -7.752898    0.408120    1.985530
   8 C     6.0000    0    12.011  -10.055718    0.846159    3.396986
   9 N     7.0000    0    14.007  -12.360612    0.690166    2.288092
  10 C     6.0000    0    12.011   -9.899309    1.471923    6.024329
  11 C     6.0000    0    12.011   -7.582322    1.663688    7.178230
  12 C     6.0000    0    12.011   -5.320344    1.220966    5.810770
  13 C     6.0000    0    12.011   -5.340127    0.578828    3.271125
  14 H     1.0000    0     1.008   -3.529351    1.349015    6.808460
  15 H     1.0000    0     1.008   -7.458170    2.141613    9.172249
  16 H     1.0000    0     1.008  -11.632246    1.791360    7.078583
  17 H     1.0000    0     1.008  -16.702142   -0.770148   -4.982029
  18 H     1.0000    0     1.008   -8.582422   -1.075594   -5.356504
  19 H     1.0000    0     1.008  -12.758961   -1.393653   -7.435957
  20 S    16.0000    0    32.060    5.026518    3.457577    3.774088
  21 C     6.0000    0    12.011    4.056320    1.287780    1.441974
  22 C     6.0000    0    12.011    6.084221    0.560077   -0.029396
  23 C     6.0000    0    12.011    8.426415    1.728151    0.677061
  24 C     6.0000    0    12.011    8.138364    3.360860    2.699951
  25 C     6.0000    0    12.011    1.452139    0.483117    1.226320
  26 C     6.0000    0    12.011   -0.583660    1.220753    2.680128
  27 C     6.0000    0    12.011   -2.935431    0.083055    1.945475
  28 C     6.0000    0    12.011   -2.642035   -1.548617   -0.076823
  29 S    16.0000    0    32.060    0.487259   -1.700566   -1.094588
  30 H     1.0000    0     1.008   -0.411122    2.584570    4.203001
  31 H     1.0000    0     1.008    5.899452   -0.749008   -1.595393
  32 H     1.0000    0     1.008   -4.099339   -2.682049   -0.955376
  33 H     1.0000    0     1.008    9.613539    4.437430    3.622587
  34 C     6.0000    0    12.011   15.552373    0.872660   -2.994644
  35 N     7.0000    0    14.007   14.960043    3.033510   -1.851846
  36 C     6.0000    0    12.011   12.666377    3.233022   -0.698758
  37 C     6.0000    0    12.011   10.867482    1.307830   -0.611467
  38 C     6.0000    0    12.011   11.493048   -1.041442   -1.810071
  39 C     6.0000    0    12.011   13.887852   -1.245027   -3.039216
  40 N     7.0000    0    14.007    9.872575   -3.070474   -1.739206
  41 C     6.0000    0    12.011   10.619458   -5.162092   -2.903596
  42 C     6.0000    0    12.011   12.985673   -5.342003   -4.172617
  43 N     7.0000    0    14.007   14.612467   -3.435039   -4.238450
  44 H     1.0000    0     1.008   12.247959    5.058017    0.182423
  45 H     1.0000    0     1.008    9.341936   -6.794246   -2.851414
  46 H     1.0000    0     1.008   13.527391   -7.102401   -5.122409
  47 H     1.0000    0     1.008  -16.538150    0.196766   -0.410894
  48 H     1.0000    0     1.008   17.399222    0.744924   -3.923142

--------------------------------
INTERNAL COORDINATES (ANGSTROEM)
--------------------------------
 C      0   0   0     0.000000000000     0.00000000     0.00000000
 C      1   0   0     1.373189798041     0.00000000     0.00000000
 C      2   1   0     1.432197072675   120.31356008     0.00000000
 C      3   2   1     1.442780855469   118.96763975   359.53016429
 C      4   3   2     1.432828678394   118.87030800     0.49991728
 C      5   4   3     1.372960267541   120.32515150   359.79439515
 N      3   2   1     1.356337027491   119.70187185   179.60156377
 C      7   3   2     1.353343475004   117.73687894   180.26959136
 C      8   7   3     1.447961277172   120.75228138   358.14399124
 N      4   3   2     1.355164137647   121.23439978   181.26771391
 C      9   8   7     1.431614989733   119.29671726   182.32916246
 C     11   9   8     1.373486538070   120.03008076     0.31930505
 C     12  11   9     1.418204008768   120.95719364   359.26227249
 C     13  12  11     1.386255040223   121.92310920   359.96215232
 H     13  12  11     1.086997449205   118.54014561   181.44242837
 H     12  11   9     1.087061519910   120.17750744   179.89955821
 H     11   9   8     1.086626871515   119.06473597   180.25726790
 H      6   5   4     1.087114180425   120.17485999   179.97902046
 H      2   1   3     1.087284948793   120.68635033   179.75700577
 H      1   2   3     1.087072329587   120.18477867   180.16882071
 S     15  13  12     4.931759557249   131.02648405   207.09817367
 C     21  15  13     1.762093191197    79.22918293   313.71393882
 C     22  21  15     1.380621713432   110.50303343   192.15034235
 C     23  22  21     1.434582865769   113.85340612   359.76821274
 C     24  23  22     1.384058572351   112.04691183   359.73261331
 C     22  21  15     1.446866408510   121.63577081    12.27594719
 C     26  22  21     1.380142674886   128.04325470     0.40798310
 C     27  26  22     1.436099294808   114.01442040   179.23878985
 C     28  27  26     1.383787781628   111.94424780     0.56000629
 S     29  28  27     1.743188329068   111.98109791   359.88273478
 H     27  26  22     1.085640214185   122.42135824     0.98820650
 H     23  22  21     1.084515389513   122.61652556   180.86776359
 H     29  28  27     1.081938768000   126.74429773   178.06403803
 H     25  24  23     1.082733543484   126.71353440   178.38932846
 C     24  23  22     4.266118280738   126.81760754   183.01772478
 N     35  24  23     1.330974158029    59.58441878   148.47746682
 C     36  35  24     1.362599600311   118.67313320     0.03584622
 C     37  36  35     1.395062683318   124.47637640     0.37881019
 C     38  37  36     1.434359792608   117.43938157     0.33785133
 C     35  24  23     1.425562142827    62.92212526   327.93507549
 N     39  38  37     1.374631254293   121.39620493   177.64700922
 C     41  39  38     1.327012086053   116.93854130   179.99955881
 C     42  41  39     1.424043157183   122.45324321     0.20283491
 N     43  42  41     1.326885072150   122.14110731     1.01243520
 H     37  36  35     1.095046413805   116.04875250   181.19925237
 H     42  41  39     1.097160743806   117.47722075   179.77687749
 H     43  42  41     1.096631406439   120.18361008   180.37619616
 H      5   4   3     1.087126994079   119.00128126   179.77538797
 H     35  24  23     1.095956198390   177.38234490   140.94246279

---------------------------
INTERNAL COORDINATES (A.U.)
---------------------------
 C      0   0   0     0.000000000000     0.00000000     0.00000000
 C      1   0   0     2.594952648192     0.00000000     0.00000000
 C      2   1   0     2.706460237159   120.31356008     0.00000000
 C      3   2   1     2.726460688100   118.96763975   359.53016429
 C      4   3   2     2.707653798994   118.87030800     0.49991728
 C      5   4   3     2.594518898408   120.32515150   359.79439515
 N      3   2   1     2.563105527254   119.70187185   179.60156377
 C      7   3   2     2.557448532887   117.73687894   180.26959136
 C      8   7   3     2.736250266378   120.75228138   358.14399124
 N      4   3   2     2.560889086665   121.23439978   181.26771391
 C      9   8   7     2.705360259812   119.29671726   182.32916246
 C     11   9   8     2.595513405580   120.03008076     0.31930505
 C     12  11   9     2.680017178601   120.95719364   359.26227249
 C     13  12  11     2.619642377790   121.92310920   359.96215232
 H     13  12  11     2.054127487268   118.54014561   181.44242837
 H     12  11   9     2.054248563355   120.17750744   179.89955821
 H     11   9   8     2.053427196922   119.06473597   180.25726790
 H      6   5   4     2.054348077306   120.17485999   179.97902046
 H      2   1   3     2.054670782753   120.68635033   179.75700577
 H      1   2   3     2.054268990684   120.18477867   180.16882071
 S     15  13  12     9.319674921550   131.02648405   207.09817367
 C     21  15  13     3.329873553810    79.22918293   313.71393882
 C     22  21  15     2.608996932933   110.50303343   192.15034235
 C     23  22  21     2.710968732720   113.85340612   359.76821274
 C     24  23  22     2.615491655050   112.04691183   359.73261331
 C     22  21  15     2.734181264455   121.63577081    12.27594719
 C     26  22  21     2.608091681273   128.04325470     0.40798310
 C     27  26  22     2.713834368305   114.01442040   179.23878985
 C     28  27  26     2.614979934743   111.94424780     0.56000629
 S     29  28  27     3.294148541787   111.98109791   359.88273478
 H     27  26  22     2.051562684782   122.42135824     0.98820650
 H     23  22  21     2.049437074202   122.61652556   180.86776359
 H     29  28  27     2.044567965192   126.74429773   178.06403803
 H     25  24  23     2.046069873195   126.71353440   178.38932846
 C     24  23  22     8.061795205510   126.81760754   183.01772478
 N     35  24  23     2.515176650001    59.58441878   148.47746682
 C     36  35  24     2.574940074778   118.67313320     0.03584622
 C     37  36  35     2.636286411124   124.47637640     0.37881019
 C     38  37  36     2.710547185537   117.43938157     0.33785133
 C     35  24  23     2.693922036830    62.92212526   327.93507549
 N     39  38  37     2.597676605742   121.39620493   177.64700922
 C     41  39  38     2.507689419044   116.93854130   179.99955881
 C     42  41  39     2.691051569960   122.45324321     0.20283491
 N     43  42  41     2.507449397552   122.14110731     1.01243520
 H     37  36  35     2.069337826024   116.04875250   181.19925237
 H     42  41  39     2.073333330684   117.47722075   179.77687749
 H     43  42  41     2.072333028027   120.18361008   180.37619616
 H      5   4   3     2.054372291602   119.00128126   179.77538797
 H     35  24  23     2.071057069731   177.38234490   140.94246279

---------------------
BASIS SET INFORMATION
---------------------
There are 4 groups of distinct atoms

 Group   1 Type C   : 11s6p2d1f contracted to 5s3p2d1f pattern {62111/411/11/1}
 Group   2 Type N   : 11s6p2d1f contracted to 5s3p2d1f pattern {62111/411/11/1}
 Group   3 Type H   : 5s1p contracted to 3s1p pattern {311/1}
 Group   4 Type S   : 14s9p3d1f contracted to 5s5p2d1f pattern {73211/51111/21/1}

Atom   0C    basis set group =>   1
Atom   1C    basis set group =>   1
Atom   2C    basis set group =>   1
Atom   3C    basis set group =>   1
Atom   4C    basis set group =>   1
Atom   5C    basis set group =>   1
Atom   6N    basis set group =>   2
Atom   7C    basis set group =>   1
Atom   8C    basis set group =>   1
Atom   9N    basis set group =>   2
Atom  10C    basis set group =>   1
Atom  11C    basis set group =>   1
Atom  12C    basis set group =>   1
Atom  13C    basis set group =>   1
Atom  14H    basis set group =>   3
Atom  15H    basis set group =>   3
Atom  16H    basis set group =>   3
Atom  17H    basis set group =>   3
Atom  18H    basis set group =>   3
Atom  19H    basis set group =>   3
Atom  20S    basis set group =>   4
Atom  21C    basis set group =>   1
Atom  22C    basis set group =>   1
Atom  23C    basis set group =>   1
Atom  24C    basis set group =>   1
Atom  25C    basis set group =>   1
Atom  26C    basis set group =>   1
Atom  27C    basis set group =>   1
Atom  28C    basis set group =>   1
Atom  29S    basis set group =>   4
Atom  30H    basis set group =>   3
Atom  31H    basis set group =>   3
Atom  32H    basis set group =>   3
Atom  33H    basis set group =>   3
Atom  34C    basis set group =>   1
Atom  35N    basis set group =>   2
Atom  36C    basis set group =>   1
Atom  37C    basis set group =>   1
Atom  38C    basis set group =>   1
Atom  39C    basis set group =>   1
Atom  40N    basis set group =>   2
Atom  41C    basis set group =>   1
Atom  42C    basis set group =>   1
Atom  43N    basis set group =>   2
Atom  44H    basis set group =>   3
Atom  45H    basis set group =>   3
Atom  46H    basis set group =>   3
Atom  47H    basis set group =>   3
Atom  48H    basis set group =>   3
-------------------------------
AUXILIARY BASIS SET INFORMATION
-------------------------------
There are 4 groups of distinct atoms

 Group   1 Type C   : 12s5p4d2f1g contracted to 6s4p3d1f1g pattern {711111/2111/211/2/1}
 Group   2 Type N   : 12s5p4d2f1g contracted to 6s4p3d1f1g pattern {711111/2111/211/2/1}
 Group   3 Type H   : 5s2p1d contracted to 3s1p1d pattern {311/2/1}
 Group   4 Type S   : 14s5p5d2f1g contracted to 8s4p3d1f1g pattern {71111111/2111/311/2/1}

Atom   0C    basis set group =>   1
Atom   1C    basis set group =>   1
Atom   2C    basis set group =>   1
Atom   3C    basis set group =>   1
Atom   4C    basis set group =>   1
Atom   5C    basis set group =>   1
Atom   6N    basis set group =>   2
Atom   7C    basis set group =>   1
Atom   8C    basis set group =>   1
Atom   9N    basis set group =>   2
Atom  10C    basis set group =>   1
Atom  11C    basis set group =>   1
Atom  12C    basis set group =>   1
Atom  13C    basis set group =>   1
Atom  14H    basis set group =>   3
Atom  15H    basis set group =>   3
Atom  16H    basis set group =>   3
Atom  17H    basis set group =>   3
Atom  18H    basis set group =>   3
Atom  19H    basis set group =>   3
Atom  20S    basis set group =>   4
Atom  21C    basis set group =>   1
Atom  22C    basis set group =>   1
Atom  23C    basis set group =>   1
Atom  24C    basis set group =>   1
Atom  25C    basis set group =>   1
Atom  26C    basis set group =>   1
Atom  27C    basis set group =>   1
Atom  28C    basis set group =>   1
Atom  29S    basis set group =>   4
Atom  30H    basis set group =>   3
Atom  31H    basis set group =>   3
Atom  32H    basis set group =>   3
Atom  33H    basis set group =>   3
Atom  34C    basis set group =>   1
Atom  35N    basis set group =>   2
Atom  36C    basis set group =>   1
Atom  37C    basis set group =>   1
Atom  38C    basis set group =>   1
Atom  39C    basis set group =>   1
Atom  40N    basis set group =>   2
Atom  41C    basis set group =>   1
Atom  42C    basis set group =>   1
Atom  43N    basis set group =>   2
Atom  44H    basis set group =>   3
Atom  45H    basis set group =>   3
Atom  46H    basis set group =>   3
Atom  47H    basis set group =>   3
Atom  48H    basis set group =>   3
-------------------------
ECP PARAMETER INFORMATION
-------------------------



--------------------------------------------------------------------------
[[18494,1],22]: A high-performance Open MPI point-to-point messaging module
was unable to find any relevant network interfaces:

Module: OpenFabrics (openib)
  Host: cx1-103-2-3

Another transport will be used instead, although this may result in
lower performance.
--------------------------------------------------------------------------


           ************************************************************
           *        Program running with 24 parallel MPI-processes    *
           *              working on a common directory               *
           ************************************************************
------------------------------------------------------------------------------
                           ORCA GTO INTEGRAL CALCULATION
                           -- RI-GTO INTEGRALS CHOSEN --
------------------------------------------------------------------------------

                         BASIS SET STATISTICS AND STARTUP INFO

Gaussian basis set:
 # of primitive gaussian shells          ...  784
 # of primitive gaussian functions       ... 1718
 # of contracted shells                  ...  438
 # of contracted basis functions         ... 1156
 Highest angular momentum                ...    3
 Maximum contraction depth               ...    7
Auxiliary gaussian basis set:
 # of primitive gaussian shells          ...  942
 # of primitive gaussian functions       ... 2634
 # of contracted shells                  ...  589
 # of contracted aux-basis functions     ... 1835
 Highest angular momentum                ...    4
 Maximum contraction depth               ...    7
Ratio of auxiliary to basis functions    ...  1.59
Integral package used                  ... LIBINT
 One Electron integrals                  
   ECP integrals                         ... done
 Ordering auxiliary basis shells         ... done
 Integral threshhold             Thresh  ...  2.500e-11
 Primitive cut-off               TCut    ...  2.500e-12
 Pre-screening matrix                    ... done
 Shell pair data                         ... 
 Ordering of the shell pairs             ... done (   0.012 sec) 48017 of 96141 pairs
 Determination of significant pairs      ... done (   0.000 sec)
 Creation of shell pair data             ... done (   0.008 sec)
 Storage of shell pair data              ... done (   0.120 sec)
 Shell pair data done in (   0.140 sec)
 Computing two index integrals           ... done
 Cholesky decomposition of the V-matrix  ... done


Timings:
 Total evaluation time                   ...   5.141 sec (  0.086 min)
 One electron matrix time                ...   1.445 sec (  0.024 min) = 28.1%
 Schwartz matrix evaluation time         ...   1.917 sec (  0.032 min) = 37.3%
 Two index repulsion integral time       ...   0.929 sec (  0.015 min) = 18.1%
 Cholesky decomposition of V             ...   0.674 sec (  0.011 min) = 13.1%
 Three index repulsion integral time     ...   0.000 sec (  0.000 min) =  0.0%

--------------------------------------------------------------------------
[[18602,1],5]: A high-performance Open MPI point-to-point messaging module
was unable to find any relevant network interfaces:

Module: OpenFabrics (openib)
  Host: cx1-103-2-3

Another transport will be used instead, although this may result in
lower performance.
--------------------------------------------------------------------------


           ************************************************************
           *        Program running with 24 parallel MPI-processes    *
           *              working on a common directory               *
           ************************************************************
-------------------------------------------------------------------------------
                                 ORCA SCF
-------------------------------------------------------------------------------

------------
SCF SETTINGS
------------
Hamiltonian:
 Density Functional     Method          .... DFT(GTOs)
 Exchange Functional    Exchange        .... WB97X-D3
 Correlation Functional Correlation     .... WB97X-D3
 Gradients option       PostSCFGGA      .... off
 Hybrid DFT is turned on
   Fraction HF Exchange ScalHFX         ....  0.195728
   Scaling of DF-GGA-X  ScalDFX         ....  0.000000
   Scaling of DF-GGA-C  ScalDFC         ....  1.000000
   Scaling of DF-LDA-C  ScalLDAC        ....  1.000000
   Perturbative correction              ....  0.000000
 Long-range corrected/Screened/Range-Separated Hybrid DFT is turned on
   Amount of maximum screened exact exchange              ....  0.804272
   Range separation parameter mu (erf(mu*r12)/r12)        ....  0.250000
 RI-approximation to the Coulomb term is turned on
   Number of auxiliary basis functions  .... 1835
   RIJ-COSX (HFX calculated with COS-X)).... on


General Settings:
 Integral files         IntName         .... total
 Hartree-Fock type      HFTyp           .... RHF
 Total Charge           Charge          ....    0
 Multiplicity           Mult            ....    1
 Number of Electrons    NEL             ....  244
 Basis Dimension        Dim             .... 1156
 Nuclear Repulsion      ENuc            ....   3255.4788832625 Eh

Convergence Acceleration:
 DIIS                   CNVDIIS         .... on
   Start iteration      DIISMaxIt       ....    12
   Startup error        DIISStart       ....  0.200000
   # of expansion vecs  DIISMaxEq       ....     5
   Bias factor          DIISBfac        ....   1.050
   Max. coefficient     DIISMaxC        ....  10.000
 Newton-Raphson         CNVNR           .... off
 SOSCF                  CNVSOSCF        .... on
   Start iteration      SOSCFMaxIt      ....   150
   Startup grad/error   SOSCFStart      ....  0.003300
 Level Shifting         CNVShift        .... on
   Level shift para.    LevelShift      ....    0.2500
   Turn off err/grad.   ShiftErr        ....    0.0010
 Zerner damping         CNVZerner       .... off
 Static damping         CNVDamp         .... on
   Fraction old density DampFac         ....    0.7000
   Max. Damping (<1)    DampMax         ....    0.9800
   Min. Damping (>=0)   DampMin         ....    0.0000
   Turn off err/grad.   DampErr         ....    0.1000
 Fernandez-Rico         CNVRico         .... off

SCF Procedure:
 Maximum # iterations   MaxIter         ....   125
 SCF integral mode      SCFMode         .... Direct
   Integral package                     .... LIBINT
 Reset frequeny         DirectResetFreq ....    20
 Integral Threshold     Thresh          ....  2.500e-11 Eh
 Primitive CutOff       TCut            ....  2.500e-12 Eh

Convergence Tolerance:
 Convergence Check Mode ConvCheckMode   .... Total+1el-Energy
 Convergence forced     ConvForced      .... 1
 Energy Change          TolE            ....  1.000e-08 Eh
 1-El. energy change                    ....  1.000e-05 Eh
 Orbital Gradient       TolG            ....  1.000e-05
 Orbital Rotation angle TolX            ....  1.000e-05
 DIIS Error             TolErr          ....  5.000e-07


Diagonalization of the overlap matrix:
Smallest eigenvalue                        ... 5.743e-06
Time for diagonalization                   ...    0.454 sec
Threshold for overlap eigenvalues          ... 1.000e-08
Number of eigenvalues below threshold      ... 0
Time for construction of square roots      ...    0.468 sec
Total time needed                          ...    0.932 sec

-------------------
DFT GRID GENERATION
-------------------

General Integration Accuracy     IntAcc      ...  5.010
Radial Grid Type                 RadialGrid  ... Gauss-Chebyshev
Angular Grid (max. acc.)         AngularGrid ... Lebedev-434
Angular grid pruning method      GridPruning ... 3 (G Style)
Weight generation scheme         WeightScheme... Becke
Basis function cutoff            BFCut       ...    1.0000e-11
Integration weight cutoff        WCut        ...    1.0000e-14
Grids for H and He will be reduced by one unit

# of grid points (after initial pruning)     ... 465656 (   0.0 sec)
# of grid points (after weights+screening)   ... 408272 (   1.2 sec)
nearest neighbour list constructed           ...    0.0 sec
Grid point re-assignment to atoms done       ...    0.1 sec
Grid point division into batches done        ...    3.6 sec
Reduced shell lists constructed in    4.2 sec

Total number of grid points                  ...   408272
Total number of batches                      ...     6405
Average number of points per batch           ...       63
Average number of grid points per atom       ...     8332
Average number of shells per batch           ...   122.44 (27.95%)
Average number of basis functions per batch  ...   315.91 (27.33%)
Average number of large shells per batch     ...    82.87 (67.68%)
Average number of large basis fcns per batch ...   217.07 (68.71%)
Maximum spatial batch extension              ...   6.52, 15.18,  9.57 au
Average spatial batch extension              ...   0.05,  0.06,  0.05 au

Time for grid setup =    6.479 sec

------------------------------
INITIAL GUESS: MODEL POTENTIAL
------------------------------
Loading Hartree-Fock densities                     ... done
Calculating cut-offs                               ... done
Setting up the integral package                    ... done
Initializing the effective Hamiltonian             ... done
Starting the Coulomb interaction                   ... done (   0.4 sec)
Reading the grid                                   ... done
Mapping shells                                     ... done
Starting the XC term evaluation                    ... done (   1.7 sec)
  promolecular density results
     # of electrons  =    243.992628544
     EX              =   -224.944902586
     EC              =     -8.411320576
     EX+EC           =   -233.356223162
Transforming the Hamiltonian                       ... done (   0.2 sec)
Diagonalizing the Hamiltonian                      ... done (   0.4 sec)
Back transforming the eigenvectors                 ... done (   0.1 sec)
Now organizing SCF variables                       ... done
                      ------------------
                      INITIAL GUESS DONE (   9.6 sec)
                      ------------------
--------------------
COSX GRID GENERATION
--------------------

General Integration Accuracy     IntAcc      ...  3.340
Radial Grid Type                 RadialGrid  ... Gauss-Chebyshev
Angular Grid (max. acc.)         AngularGrid ... Lebedev-50
Angular grid pruning method      GridPruning ... 3 (G Style)
Weight generation scheme         WeightScheme... Becke
Basis function cutoff            BFCut       ...    1.0000e-11
Integration weight cutoff        WCut        ...    1.0000e-14
Grids for H and He will be reduced by one unit

# of grid points (after initial pruning)     ...  24702 (   0.0 sec)
# of grid points (after weights+screening)   ...  22531 (   0.1 sec)
nearest neighbour list constructed           ...    0.0 sec
Grid point re-assignment to atoms done       ...    0.0 sec
Grid point division into batches done        ...    0.0 sec
Reduced shell lists constructed in    0.1 sec

Total number of grid points                  ...    22531
Total number of batches                      ...      377
Average number of points per batch           ...       59
Average number of grid points per atom       ...      460
Average number of shells per batch           ...   131.94 (30.12%)
Average number of basis functions per batch  ...   340.53 (29.46%)
Average number of large shells per batch     ...    93.76 (71.07%)
Average number of large basis fcns per batch ...   248.12 (72.86%)
Maximum spatial batch extension              ...   3.94, 17.61,  5.88 au
Average spatial batch extension              ...   0.11,  0.22,  0.11 au

Overlap Fitting                  UseSFitting ... on
Constructing numerical overlap ... done (      0.1 sec)
Inverting numerical overlap    ... done (      0.2 sec)
Obtaining analytic overlap     ... done (      0.0 sec)
Final contraction and storage  ... done (      0.5 sec)


General Integration Accuracy     IntAcc      ...  3.670
Radial Grid Type                 RadialGrid  ... Gauss-Chebyshev
Angular Grid (max. acc.)         AngularGrid ... Lebedev-50
Angular grid pruning method      GridPruning ... 3 (G Style)
Weight generation scheme         WeightScheme... Becke
Basis function cutoff            BFCut       ...    1.0000e-11
Integration weight cutoff        WCut        ...    1.0000e-14
Grids for H and He will be reduced by one unit

# of grid points (after initial pruning)     ...  30872 (   0.0 sec)
# of grid points (after weights+screening)   ...  28062 (   0.1 sec)
nearest neighbour list constructed           ...    0.0 sec
Grid point re-assignment to atoms done       ...    0.0 sec
Grid point division into batches done        ...    0.0 sec
Reduced shell lists constructed in    0.1 sec

Total number of grid points                  ...    28062
Total number of batches                      ...      461
Average number of points per batch           ...       60
Average number of grid points per atom       ...      573
Average number of shells per batch           ...   132.10 (30.16%)
Average number of basis functions per batch  ...   342.95 (29.67%)
Average number of large shells per batch     ...    92.81 (70.26%)
Average number of large basis fcns per batch ...   245.10 (71.47%)
Maximum spatial batch extension              ...   4.00, 21.99,  6.44 au
Average spatial batch extension              ...   0.11,  0.20,  0.11 au

Overlap Fitting                  UseSFitting ... on
Constructing numerical overlap ... done (      0.1 sec)
Inverting numerical overlap    ... done (      0.2 sec)
Obtaining analytic overlap     ... done (      0.0 sec)
Final contraction and storage  ... done (      0.5 sec)


General Integration Accuracy     IntAcc      ...  4.010
Radial Grid Type                 RadialGrid  ... Gauss-Chebyshev
Angular Grid (max. acc.)         AngularGrid ... Lebedev-110
Angular grid pruning method      GridPruning ... 3 (G Style)
Weight generation scheme         WeightScheme... Becke
Basis function cutoff            BFCut       ...    1.0000e-11
Integration weight cutoff        WCut        ...    1.0000e-14
Grids for H and He will be reduced by one unit

# of grid points (after initial pruning)     ...  60260 (   0.0 sec)
# of grid points (after weights+screening)   ...  54328 (   0.2 sec)
nearest neighbour list constructed           ...    0.0 sec
Grid point re-assignment to atoms done       ...    0.0 sec
Grid point division into batches done        ...    0.1 sec
Reduced shell lists constructed in    0.2 sec

Total number of grid points                  ...    54328
Total number of batches                      ...      869
Average number of points per batch           ...       62
Average number of grid points per atom       ...     1109
Average number of shells per batch           ...   132.87 (30.34%)
Average number of basis functions per batch  ...   346.29 (29.96%)
Average number of large shells per batch     ...    92.87 (69.90%)
Average number of large basis fcns per batch ...   245.24 (70.82%)
Maximum spatial batch extension              ...   3.85, 18.11,  5.06 au
Average spatial batch extension              ...   0.09,  0.16,  0.10 au

Overlap Fitting                  UseSFitting ... on
Constructing numerical overlap ... done (      0.2 sec)
Inverting numerical overlap    ... done (      0.1 sec)
Obtaining analytic overlap     ... done (      0.0 sec)
Final contraction and storage  ... done (      0.5 sec)

Time for X-Grid setup             =    3.546 sec
--------------
SCF ITERATIONS
--------------
ITER       Energy         Delta-E        Max-DP      RMS-DP      [F,P]     Damp
               ***  Starting incremental Fock matrix formation  ***
  0  -2107.4642712412   0.000000000000 0.09707407  0.00057610  0.1620735 0.7000
  1  -2107.7164439985  -0.252172757294 0.10851657  0.00052549  0.0900584 0.7000
                               ***Turning on DIIS***
  2  -2107.8459045789  -0.129460580386 0.24066276  0.00120493  0.0471246 0.0000
  3  -2108.0581248979  -0.212220319043 0.04497671  0.00031861  0.0400367 0.0000
  4  -2108.0919482828  -0.033823384855 0.01699819  0.00014838  0.0058522 0.0000
                      *** Initiating the SOSCF procedure ***
                           *** Shutting down DIIS ***
                      *** Re-Reading the Fockian *** 
                      *** Removing any level shift *** 
ITER      Energy       Delta-E        Grad      Rot      Max-DP    RMS-DP
  5  -2108.09332583  -0.0013775521  0.002104  0.002104  0.006833  0.000064
               *** Restarting incremental Fock matrix formation ***
  6  -2108.09373789  -0.0004120532  0.001504  0.006372  0.014242  0.000125
  7  -2108.09394510  -0.0002072096  0.000687  0.007089  0.009601  0.000075
  8  -2108.09399502  -0.0000499263  0.000333  0.001176  0.005650  0.000050
  9  -2108.09401526  -0.0000202408  0.000153  0.000366  0.000760  0.000006
 10  -2108.09401602  -0.0000007575  0.000108  0.000176  0.000561  0.000004
 11  -2108.09401679  -0.0000007694  0.000027  0.000129  0.000121  0.000001
 12  -2108.09401683  -0.0000000395  0.000015  0.000036  0.000084  0.000001
 13  -2108.09401690  -0.0000000687  0.000005  0.000024  0.000156  0.000001
                  ***Gradient check signals convergence***
              ***Rediagonalizing the Fockian in SOSCF/NRSCF***

               *****************************************************
               *                     SUCCESS                       *
               *           SCF CONVERGED AFTER  14 CYCLES          *
               *****************************************************

Old exchange energy                            =    -70.821342762 Eh
New exchange energy                            =    -70.822006878 Eh
Exchange energy change after final integration =     -0.000664116 Eh
Total energy after final integration           =  -2108.094681000 Eh
Final COS-X integration done in                =    34.396 sec

----------------
TOTAL SCF ENERGY
----------------

Total Energy       :        -2108.09468100 Eh          -57364.17261 eV

Components:
Nuclear Repulsion  :         3255.47888326 Eh           88586.08404 eV
Electronic Energy  :        -5363.57356426 Eh         -145950.25665 eV
One Electron Energy:        -9351.95153947 Eh         -254479.53888 eV
Two Electron Energy:         3988.37797521 Eh          108529.28223 eV

Virial components:
Potential Energy   :        -4207.51141675 Eh         -114492.20632 eV
Kinetic Energy     :         2099.41673575 Eh           57128.03371 eV
Virial Ratio       :            2.00413350


DFT components:
N(Alpha)           :      121.999976515485 electrons
N(Beta)            :      121.999976515485 electrons
N(Total)           :      243.999953030970 electrons
E(XC)              :     -166.871172053183 Eh       

---------------
SCF CONVERGENCE
---------------

  Last Energy change         ...    1.5944e-08  Tolerance :   1.0000e-08
  Last MAX-Density change    ...    8.7923e-14  Tolerance :   1.0000e-07
  Last RMS-Density change    ...    1.5030e-16  Tolerance :   5.0000e-09
  Last Orbital Gradient      ...    2.3026e-06  Tolerance :   1.0000e-05
  Last Orbital Rotation      ...    9.9152e-06  Tolerance :   1.0000e-05

             **** THE GBW FILE WAS UPDATED (total.gbw) ****
             **** DENSITY FILE WAS UPDATED (total.scfp.tmp) ****
             **** ENERGY FILE WAS UPDATED (total.en.tmp) ****
----------------
ORBITAL ENERGIES
----------------

  NO   OCC          E(Eh)            E(eV) 
   0   2.0000     -88.986260     -2421.4392 
   1   2.0000     -88.982237     -2421.3298 
   2   2.0000     -14.463551      -393.5732 
   3   2.0000     -14.460503      -393.4903 
   4   2.0000     -14.446336      -393.1048 
   5   2.0000     -14.446112      -393.0987 
   6   2.0000     -14.440177      -392.9372 
   7   2.0000     -10.352818      -281.7145 
   8   2.0000     -10.352322      -281.7010 
   9   2.0000     -10.348583      -281.5993 
  10   2.0000     -10.344671      -281.4928 
  11   2.0000     -10.341623      -281.4099 
  12   2.0000     -10.338950      -281.3371 
  13   2.0000     -10.338821      -281.3336 
  14   2.0000     -10.338010      -281.3116 
  15   2.0000     -10.335439      -281.2416 
  16   2.0000     -10.330593      -281.1097 
  17   2.0000     -10.330008      -281.0938 
  18   2.0000     -10.328904      -281.0638 
  19   2.0000     -10.320881      -280.8455 
  20   2.0000     -10.319283      -280.8020 
  21   2.0000     -10.315181      -280.6903 
  22   2.0000     -10.311878      -280.6005 
  23   2.0000     -10.308578      -280.5107 
  24   2.0000     -10.303046      -280.3601 
  25   2.0000     -10.302510      -280.3455 
  26   2.0000     -10.301625      -280.3215 
  27   2.0000     -10.301544      -280.3193 
  28   2.0000     -10.300695      -280.2962 
  29   2.0000     -10.299298      -280.2581 
  30   2.0000     -10.298674      -280.2412 
  31   2.0000     -10.295880      -280.1651 
  32   2.0000     -10.291747      -280.0527 
  33   2.0000     -10.289840      -280.0008 
  34   2.0000      -8.082573      -219.9380 
  35   2.0000      -8.078594      -219.8297 
  36   2.0000      -6.035867      -164.2443 
  37   2.0000      -6.031892      -164.1361 
  38   2.0000      -6.031735      -164.1319 
  39   2.0000      -6.029644      -164.0750 
  40   2.0000      -6.027712      -164.0224 
  41   2.0000      -6.025702      -163.9677 
  42   2.0000      -1.116871       -30.3916 
  43   2.0000      -1.101388       -29.9703 
  44   2.0000      -1.065678       -28.9986 
  45   2.0000      -1.043046       -28.3827 
  46   2.0000      -1.031436       -28.0668 
  47   2.0000      -1.015660       -27.6375 
  48   2.0000      -0.999131       -27.1877 
  49   2.0000      -0.987268       -26.8649 
  50   2.0000      -0.961941       -26.1757 
  51   2.0000      -0.938339       -25.5335 
  52   2.0000      -0.911488       -24.8029 
  53   2.0000      -0.902736       -24.5647 
  54   2.0000      -0.881279       -23.9808 
  55   2.0000      -0.876483       -23.8503 
  56   2.0000      -0.867781       -23.6135 
  57   2.0000      -0.853507       -23.2251 
  58   2.0000      -0.836856       -22.7720 
  59   2.0000      -0.818112       -22.2620 
  60   2.0000      -0.808921       -22.0119 
  61   2.0000      -0.800772       -21.7901 
  62   2.0000      -0.785710       -21.3803 
  63   2.0000      -0.763397       -20.7731 
  64   2.0000      -0.745002       -20.2725 
  65   2.0000      -0.731424       -19.9031 
  66   2.0000      -0.721486       -19.6326 
  67   2.0000      -0.710521       -19.3342 
  68   2.0000      -0.681182       -18.5359 
  69   2.0000      -0.677098       -18.4248 
  70   2.0000      -0.668531       -18.1916 
  71   2.0000      -0.664360       -18.0782 
  72   2.0000      -0.653806       -17.7910 
  73   2.0000      -0.649785       -17.6816 
  74   2.0000      -0.638268       -17.3682 
  75   2.0000      -0.631422       -17.1819 
  76   2.0000      -0.615394       -16.7457 
  77   2.0000      -0.602476       -16.3942 
  78   2.0000      -0.593170       -16.1410 
  79   2.0000      -0.586920       -15.9709 
  80   2.0000      -0.579732       -15.7753 
  81   2.0000      -0.573511       -15.6060 
  82   2.0000      -0.568809       -15.4781 
  83   2.0000      -0.564581       -15.3630 
  84   2.0000      -0.561660       -15.2836 
  85   2.0000      -0.553662       -15.0659 
  86   2.0000      -0.543522       -14.7900 
  87   2.0000      -0.537654       -14.6303 
  88   2.0000      -0.530822       -14.4444 
  89   2.0000      -0.519349       -14.1322 
  90   2.0000      -0.517965       -14.0946 
  91   2.0000      -0.515817       -14.0361 
  92   2.0000      -0.505640       -13.7592 
  93   2.0000      -0.499068       -13.5803 
  94   2.0000      -0.494730       -13.4623 
  95   2.0000      -0.491057       -13.3623 
  96   2.0000      -0.486638       -13.2421 
  97   2.0000      -0.485011       -13.1978 
  98   2.0000      -0.483716       -13.1626 
  99   2.0000      -0.475637       -12.9427 
 100   2.0000      -0.474709       -12.9175 
 101   2.0000      -0.462312       -12.5802 
 102   2.0000      -0.457338       -12.4448 
 103   2.0000      -0.453356       -12.3365 
 104   2.0000      -0.451496       -12.2858 
 105   2.0000      -0.445859       -12.1324 
 106   2.0000      -0.433334       -11.7916 
 107   2.0000      -0.430310       -11.7093 
 108   2.0000      -0.423191       -11.5156 
 109   2.0000      -0.414649       -11.2832 
 110   2.0000      -0.391812       -10.6617 
 111   2.0000      -0.379074       -10.3151 
 112   2.0000      -0.375225       -10.2104 
 113   2.0000      -0.369661       -10.0590 
 114   2.0000      -0.361013        -9.8237 
 115   2.0000      -0.355733        -9.6800 
 116   2.0000      -0.349187        -9.5019 
 117   2.0000      -0.340474        -9.2648 
 118   2.0000      -0.338736        -9.2175 
 119   2.0000      -0.322089        -8.7645 
 120   2.0000      -0.302942        -8.2435 
 121   2.0000      -0.279815        -7.6142 
 122   0.0000      -0.042625        -1.1599 
 123   0.0000      -0.032203        -0.8763 
 124   0.0000       0.008717         0.2372 
 125   0.0000       0.018883         0.5138 
 126   0.0000       0.030011         0.8166 
 127   0.0000       0.038861         1.0575 
 128   0.0000       0.050943         1.3862 
 129   0.0000       0.073094         1.9890 
 130   0.0000       0.090224         2.4551 
 131   0.0000       0.097629         2.6566 
 132   0.0000       0.104404         2.8410 
 133   0.0000       0.114179         3.1070 
 134   0.0000       0.126149         3.4327 
 135   0.0000       0.126590         3.4447 
 136   0.0000       0.128939         3.5086 
 137   0.0000       0.131109         3.5677 
 138   0.0000       0.135787         3.6950 
 139   0.0000       0.140707         3.8288 
 140   0.0000       0.146841         3.9958 
 141   0.0000       0.149927         4.0797 
 142   0.0000       0.152551         4.1511 
 143   0.0000       0.152821         4.1585 
 144   0.0000       0.154831         4.2132 
 145   0.0000       0.156437         4.2569 
 146   0.0000       0.169632         4.6159 
 147   0.0000       0.171006         4.6533 
 148   0.0000       0.172724         4.7001 
 149   0.0000       0.174497         4.7483 
 150   0.0000       0.178568         4.8591 
 151   0.0000       0.184983         5.0336 
 152   0.0000       0.191858         5.2207 
 153   0.0000       0.196200         5.3389 
 154   0.0000       0.199563         5.4304 
 155   0.0000       0.202752         5.5172 
 156   0.0000       0.206144         5.6094 
 157   0.0000       0.207651         5.6505 
 158   0.0000       0.218782         5.9534 
 159   0.0000       0.222750         6.0613 
 160   0.0000       0.229208         6.2371 
 161   0.0000       0.242122         6.5885 
 162   0.0000       0.243473         6.6252 
 163   0.0000       0.244606         6.6561 
 164   0.0000       0.248190         6.7536 
 165   0.0000       0.251537         6.8447 
 166   0.0000       0.254972         6.9382 
 167   0.0000       0.257859         7.0167 
 168   0.0000       0.263013         7.1569 
 169   0.0000       0.266929         7.2635 
 170   0.0000       0.270848         7.3702 
 171   0.0000       0.274839         7.4787 
 172   0.0000       0.276371         7.5205 
 173   0.0000       0.278805         7.5867 
 174   0.0000       0.280243         7.6258 
 175   0.0000       0.282386         7.6841 
 176   0.0000       0.285743         7.7755 
 177   0.0000       0.287211         7.8154 
 178   0.0000       0.291675         7.9369 
 179   0.0000       0.293979         7.9996 
 180   0.0000       0.298080         8.1112 
 181   0.0000       0.300241         8.1700 
 182   0.0000       0.303587         8.2610 
 183   0.0000       0.307132         8.3575 
 184   0.0000       0.308939         8.4067 
 185   0.0000       0.314211         8.5501 
 186   0.0000       0.315449         8.5838 
 187   0.0000       0.321367         8.7449 
 188   0.0000       0.323266         8.7965 
 189   0.0000       0.323653         8.8070 
 190   0.0000       0.325039         8.8448 
 191   0.0000       0.330365         8.9897 
 192   0.0000       0.332860         9.0576 
 193   0.0000       0.336491         9.1564 
 194   0.0000       0.339269         9.2320 
 195   0.0000       0.341639         9.2965 
 196   0.0000       0.343057         9.3351 
 197   0.0000       0.347803         9.4642 
 198   0.0000       0.348489         9.4829 
 199   0.0000       0.354750         9.6532 
 200   0.0000       0.357880         9.7384 
 201   0.0000       0.359793         9.7905 
 202   0.0000       0.361619         9.8402 
 203   0.0000       0.363513         9.8917 
 204   0.0000       0.367788        10.0080 
 205   0.0000       0.370007        10.0684 
 206   0.0000       0.371918        10.1204 
 207   0.0000       0.375946        10.2300 
 208   0.0000       0.378274        10.2934 
 209   0.0000       0.381996        10.3946 
 210   0.0000       0.384747        10.4695 
 211   0.0000       0.386193        10.5089 
 212   0.0000       0.388431        10.5697 
 213   0.0000       0.395809        10.7705 
 214   0.0000       0.401192        10.9170 
 215   0.0000       0.403673        10.9845 
 216   0.0000       0.407117        11.0782 
 217   0.0000       0.411643        11.2014 
 218   0.0000       0.412724        11.2308 
 219   0.0000       0.415431        11.3045 
 220   0.0000       0.418537        11.3890 
 221   0.0000       0.419502        11.4152 
 222   0.0000       0.422325        11.4920 
 223   0.0000       0.426568        11.6075 
 224   0.0000       0.430468        11.7136 
 225   0.0000       0.432424        11.7668 
 226   0.0000       0.433558        11.7977 
 227   0.0000       0.435704        11.8561 
 228   0.0000       0.440390        11.9836 
 229   0.0000       0.442531        12.0419 
 230   0.0000       0.447904        12.1881 
 231   0.0000       0.449750        12.2383 
 232   0.0000       0.454578        12.3697 
 233   0.0000       0.459181        12.4949 
 234   0.0000       0.460735        12.5372 
 235   0.0000       0.464255        12.6330 
 236   0.0000       0.465977        12.6799 
 237   0.0000       0.468579        12.7507 
 238   0.0000       0.470298        12.7975 
 239   0.0000       0.472641        12.8612 
 240   0.0000       0.476552        12.9676 
 241   0.0000       0.481822        13.1111 
 242   0.0000       0.483314        13.1516 
 243   0.0000       0.484991        13.1973 
 244   0.0000       0.488558        13.2943 
 245   0.0000       0.489012        13.3067 
 246   0.0000       0.491735        13.3808 
 247   0.0000       0.496206        13.5025 
 248   0.0000       0.500221        13.6117 
 249   0.0000       0.500789        13.6272 
 250   0.0000       0.504561        13.7298 
 251   0.0000       0.505283        13.7494 
 252   0.0000       0.508797        13.8451 
 253   0.0000       0.512071        13.9342 
 254   0.0000       0.515295        14.0219 
 255   0.0000       0.517957        14.0943 
 256   0.0000       0.520402        14.1609 
 257   0.0000       0.522129        14.2079 
 258   0.0000       0.524456        14.2712 
 259   0.0000       0.528509        14.3815 
 260   0.0000       0.533912        14.5285 
 261   0.0000       0.537183        14.6175 
 262   0.0000       0.539225        14.6731 
 263   0.0000       0.543759        14.7964 
 264   0.0000       0.547985        14.9114 
 265   0.0000       0.550160        14.9706 
 266   0.0000       0.552195        15.0260 
 267   0.0000       0.557256        15.1637 
 268   0.0000       0.559673        15.2295 
 269   0.0000       0.561891        15.2898 
 270   0.0000       0.567683        15.4474 
 271   0.0000       0.575373        15.6567 
 272   0.0000       0.578113        15.7313 
 273   0.0000       0.582297        15.8451 
 274   0.0000       0.583031        15.8651 
 275   0.0000       0.589886        16.0516 
 276   0.0000       0.592896        16.1335 
 277   0.0000       0.595290        16.1987 
 278   0.0000       0.600157        16.3311 
 279   0.0000       0.605322        16.4717 
 280   0.0000       0.607419        16.5287 
 281   0.0000       0.617335        16.7986 
 282   0.0000       0.620932        16.8964 
 283   0.0000       0.624082        16.9821 
 284   0.0000       0.629455        17.1283 
 285   0.0000       0.630629        17.1603 
 286   0.0000       0.634426        17.2636 
 287   0.0000       0.634958        17.2781 
 288   0.0000       0.639965        17.4143 
 289   0.0000       0.641600        17.4588 
 290   0.0000       0.650090        17.6898 
 291   0.0000       0.653601        17.7854 
 292   0.0000       0.656914        17.8755 
 293   0.0000       0.662083        18.0162 
 294   0.0000       0.667160        18.1544 
 295   0.0000       0.672279        18.2936 
 296   0.0000       0.676936        18.4204 
 297   0.0000       0.679683        18.4951 
 298   0.0000       0.682620        18.5750 
 299   0.0000       0.686452        18.6793 
 300   0.0000       0.688387        18.7320 
 301   0.0000       0.693400        18.8684 
 302   0.0000       0.695818        18.9342 
 303   0.0000       0.697976        18.9929 
 304   0.0000       0.703435        19.1414 
 305   0.0000       0.707033        19.2394 
 306   0.0000       0.710691        19.3389 
 307   0.0000       0.713405        19.4127 
 308   0.0000       0.722115        19.6498 
 309   0.0000       0.725672        19.7465 
 310   0.0000       0.727622        19.7996 
 311   0.0000       0.731480        19.9046 
 312   0.0000       0.733450        19.9582 
 313   0.0000       0.735662        20.0184 
 314   0.0000       0.737627        20.0718 
 315   0.0000       0.738505        20.0958 
 316   0.0000       0.744825        20.2677 
 317   0.0000       0.747424        20.3384 
 318   0.0000       0.748864        20.3776 
 319   0.0000       0.753878        20.5141 
 320   0.0000       0.754578        20.5331 
 321   0.0000       0.761390        20.7185 
 322   0.0000       0.762659        20.7530 
 323   0.0000       0.766248        20.8507 
 324   0.0000       0.767100        20.8739 
 325   0.0000       0.770513        20.9667 
 326   0.0000       0.771992        21.0070 
 327   0.0000       0.775158        21.0931 
 328   0.0000       0.775397        21.0996 
 329   0.0000       0.786966        21.4144 
 330   0.0000       0.787826        21.4378 
 331   0.0000       0.788324        21.4514 
 332   0.0000       0.793277        21.5862 
 333   0.0000       0.795705        21.6522 
 334   0.0000       0.803168        21.8553 
 335   0.0000       0.804434        21.8898 
 336   0.0000       0.808972        22.0132 
 337   0.0000       0.811358        22.0782 
 338   0.0000       0.817890        22.2559 
 339   0.0000       0.823474        22.4079 
 340   0.0000       0.825677        22.4678 
 341   0.0000       0.830358        22.5952 
 342   0.0000       0.835405        22.7325 
 343   0.0000       0.835951        22.7474 
 344   0.0000       0.837654        22.7937 
 345   0.0000       0.844030        22.9672 
 346   0.0000       0.846806        23.0428 
 347   0.0000       0.852995        23.2112 
 348   0.0000       0.855158        23.2700 
 349   0.0000       0.861728        23.4488 
 350   0.0000       0.863889        23.5076 
 351   0.0000       0.868601        23.6358 
 352   0.0000       0.870294        23.6819 
 353   0.0000       0.878262        23.8987 
 354   0.0000       0.886007        24.1095 
 355   0.0000       0.888242        24.1703 
 356   0.0000       0.893055        24.3013 
 357   0.0000       0.897638        24.4260 
 358   0.0000       0.901307        24.5258 
 359   0.0000       0.904540        24.6138 
 360   0.0000       0.905955        24.6523 
 361   0.0000       0.911043        24.7907 
 362   0.0000       0.915972        24.9249 
 363   0.0000       0.918622        24.9970 
 364   0.0000       0.926360        25.2075 
 365   0.0000       0.928373        25.2623 
 366   0.0000       0.933540        25.4029 
 367   0.0000       0.935286        25.4504 
 368   0.0000       0.938888        25.5484 
 369   0.0000       0.945203        25.7203 
 370   0.0000       0.951288        25.8859 
 371   0.0000       0.957844        26.0643 
 372   0.0000       0.962010        26.1776 
 373   0.0000       0.967347        26.3229 
 374   0.0000       0.970416        26.4064 
 375   0.0000       0.973874        26.5005 
 376   0.0000       0.977572        26.6011 
 377   0.0000       0.983390        26.7594 
 378   0.0000       0.987283        26.8653 
 379   0.0000       0.992688        27.0124 
 380   0.0000       0.995455        27.0877 
 381   0.0000       0.999533        27.1987 
 382   0.0000       1.008325        27.4379 
 383   0.0000       1.011956        27.5367 
 384   0.0000       1.025022        27.8923 
 385   0.0000       1.030131        28.0313 
 386   0.0000       1.041021        28.3276 
 387   0.0000       1.042832        28.3769 
 388   0.0000       1.044785        28.4300 
 389   0.0000       1.049330        28.5537 
 390   0.0000       1.060085        28.8464 
 391   0.0000       1.066779        29.0285 
 392   0.0000       1.075032        29.2531 
 393   0.0000       1.078933        29.3593 
 394   0.0000       1.085361        29.5342 
 395   0.0000       1.087169        29.5834 
 396   0.0000       1.094633        29.7865 
 397   0.0000       1.101387        29.9703 
 398   0.0000       1.107233        30.1293 
 399   0.0000       1.116549        30.3828 
 400   0.0000       1.118823        30.4447 
 401   0.0000       1.126858        30.6634 
 402   0.0000       1.135157        30.8892 
 403   0.0000       1.143125        31.1060 
 404   0.0000       1.148991        31.2656 
 405   0.0000       1.152925        31.3727 
 406   0.0000       1.168565        31.7983 
 407   0.0000       1.169214        31.8159 
 408   0.0000       1.178964        32.0812 
 409   0.0000       1.187681        32.3184 
 410   0.0000       1.191672        32.4271 
 411   0.0000       1.195250        32.5244 
 412   0.0000       1.201927        32.7061 
 413   0.0000       1.203360        32.7451 
 414   0.0000       1.212092        32.9827 
 415   0.0000       1.216728        33.1089 
 416   0.0000       1.218424        33.1550 
 417   0.0000       1.225916        33.3589 
 418   0.0000       1.227841        33.4113 
 419   0.0000       1.236062        33.6350 
 420   0.0000       1.238075        33.6897 
 421   0.0000       1.244384        33.8614 
 422   0.0000       1.247855        33.9559 
 423   0.0000       1.256290        34.1854 
 424   0.0000       1.260837        34.3091 
 425   0.0000       1.261241        34.3201 
 426   0.0000       1.265881        34.4464 
 427   0.0000       1.274763        34.6881 
 428   0.0000       1.280078        34.8327 
 429   0.0000       1.288621        35.0652 
 430   0.0000       1.291652        35.1476 
 431   0.0000       1.297297        35.3013 
 432   0.0000       1.306798        35.5598 
 433   0.0000       1.308440        35.6045 
 434   0.0000       1.317419        35.8488 
 435   0.0000       1.319307        35.9002 
 436   0.0000       1.325611        36.0717 
 437   0.0000       1.332208        36.2512 
 438   0.0000       1.339026        36.4367 
 439   0.0000       1.344937        36.5976 
 440   0.0000       1.349776        36.7293 
 441   0.0000       1.354469        36.8570 
 442   0.0000       1.358319        36.9617 
 443   0.0000       1.363290        37.0970 
 444   0.0000       1.369194        37.2577 
 445   0.0000       1.377100        37.4728 
 446   0.0000       1.378165        37.5018 
 447   0.0000       1.382498        37.6197 
 448   0.0000       1.388620        37.7863 
 449   0.0000       1.401416        38.1345 
 450   0.0000       1.412666        38.4406 
 451   0.0000       1.415267        38.5114 
 452   0.0000       1.421277        38.6749 
 453   0.0000       1.424712        38.7684 
 454   0.0000       1.426865        38.8270 
 455   0.0000       1.434927        39.0463 
 456   0.0000       1.439302        39.1654 
 457   0.0000       1.443058        39.2676 
 458   0.0000       1.450578        39.4722 
 459   0.0000       1.454734        39.5853 
 460   0.0000       1.463237        39.8167 
 461   0.0000       1.465489        39.8780 
 462   0.0000       1.477297        40.1993 
 463   0.0000       1.479445        40.2578 
 464   0.0000       1.480821        40.2952 
 465   0.0000       1.481926        40.3253 
 466   0.0000       1.487747        40.4837 
 467   0.0000       1.491177        40.5770 
 468   0.0000       1.495827        40.7035 
 469   0.0000       1.499636        40.8072 
 470   0.0000       1.506119        40.9836 
 471   0.0000       1.514298        41.2061 
 472   0.0000       1.518537        41.3215 
 473   0.0000       1.526130        41.5281 
 474   0.0000       1.526705        41.5438 
 475   0.0000       1.530437        41.6453 
 476   0.0000       1.532581        41.7037 
 477   0.0000       1.538941        41.8767 
 478   0.0000       1.545480        42.0546 
 479   0.0000       1.551475        42.2178 
 480   0.0000       1.556260        42.3480 
 481   0.0000       1.558949        42.4212 
 482   0.0000       1.569066        42.6965 
 483   0.0000       1.571418        42.7605 
 484   0.0000       1.577610        42.9289 
 485   0.0000       1.578861        42.9630 
 486   0.0000       1.582471        43.0612 
 487   0.0000       1.584565        43.1182 
 488   0.0000       1.586535        43.1718 
 489   0.0000       1.589378        43.2492 
 490   0.0000       1.595084        43.4044 
 491   0.0000       1.596334        43.4385 
 492   0.0000       1.602078        43.5948 
 493   0.0000       1.605827        43.6968 
 494   0.0000       1.607175        43.7334 
 495   0.0000       1.611820        43.8599 
 496   0.0000       1.618160        44.0324 
 497   0.0000       1.620069        44.0843 
 498   0.0000       1.628151        44.3043 
 499   0.0000       1.636548        44.5327 
 500   0.0000       1.638551        44.5872 
 501   0.0000       1.645799        44.7845 
 502   0.0000       1.646494        44.8034 
 503   0.0000       1.650622        44.9157 
 504   0.0000       1.654123        45.0110 
 505   0.0000       1.655006        45.0350 
 506   0.0000       1.657955        45.1153 
 507   0.0000       1.666306        45.3425 
 508   0.0000       1.670696        45.4619 
 509   0.0000       1.674580        45.5676 
 510   0.0000       1.678215        45.6666 
 511   0.0000       1.685295        45.8592 
 512   0.0000       1.693033        46.0698 
 513   0.0000       1.698211        46.2107 
 514   0.0000       1.703143        46.3449 
 515   0.0000       1.705636        46.4127 
 516   0.0000       1.710694        46.5504 
 517   0.0000       1.712657        46.6038 
 518   0.0000       1.716852        46.7179 
 519   0.0000       1.717878        46.7458 
 520   0.0000       1.723968        46.9116 
 521   0.0000       1.724868        46.9361 
 522   0.0000       1.727814        47.0162 
 523   0.0000       1.732903        47.1547 
 524   0.0000       1.737410        47.2773 
 525   0.0000       1.742455        47.4146 
 526   0.0000       1.752186        47.6794 
 527   0.0000       1.754742        47.7490 
 528   0.0000       1.760345        47.9014 
 529   0.0000       1.765494        48.0415 
 530   0.0000       1.772184        48.2236 
 531   0.0000       1.777904        48.3792 
 532   0.0000       1.781752        48.4839 
 533   0.0000       1.787766        48.6476 
 534   0.0000       1.792606        48.7793 
 535   0.0000       1.793510        48.8039 
 536   0.0000       1.796427        48.8833 
 537   0.0000       1.798646        48.9436 
 538   0.0000       1.801999        49.0349 
 539   0.0000       1.807469        49.1837 
 540   0.0000       1.813211        49.3400 
 541   0.0000       1.818013        49.4706 
 542   0.0000       1.823073        49.6083 
 543   0.0000       1.826615        49.7047 
 544   0.0000       1.826894        49.7123 
 545   0.0000       1.837625        50.0043 
 546   0.0000       1.849886        50.3379 
 547   0.0000       1.863319        50.7035 
 548   0.0000       1.865299        50.7574 
 549   0.0000       1.868983        50.8576 
 550   0.0000       1.873826        50.9894 
 551   0.0000       1.882823        51.2342 
 552   0.0000       1.885512        51.3074 
 553   0.0000       1.892437        51.4958 
 554   0.0000       1.896233        51.5991 
 555   0.0000       1.903155        51.7875 
 556   0.0000       1.906496        51.8784 
 557   0.0000       1.918880        52.2154 
 558   0.0000       1.922386        52.3108 
 559   0.0000       1.925652        52.3997 
 560   0.0000       1.928082        52.4658 
 561   0.0000       1.930944        52.5437 
 562   0.0000       1.932173        52.5771 
 563   0.0000       1.939668        52.7811 
 564   0.0000       1.940874        52.8139 
 565   0.0000       1.943956        52.8977 
 566   0.0000       1.945775        52.9472 
 567   0.0000       1.953458        53.1563 
 568   0.0000       1.954033        53.1719 
 569   0.0000       1.965943        53.4960 
 570   0.0000       1.975235        53.7489 
 571   0.0000       1.981460        53.9183 
 572   0.0000       1.990066        54.1525 
 573   0.0000       1.996502        54.3276 
 574   0.0000       1.999923        54.4207 
 575   0.0000       2.000879        54.4467 
 576   0.0000       2.010386        54.7054 
 577   0.0000       2.024408        55.0869 
 578   0.0000       2.032887        55.3177 
 579   0.0000       2.036422        55.4139 
 580   0.0000       2.039903        55.5086 
 581   0.0000       2.049039        55.7572 
 582   0.0000       2.058720        56.0206 
 583   0.0000       2.070644        56.3451 
 584   0.0000       2.074275        56.4439 
 585   0.0000       2.083442        56.6934 
 586   0.0000       2.084834        56.7312 
 587   0.0000       2.089908        56.8693 
 588   0.0000       2.093714        56.9729 
 589   0.0000       2.098829        57.1120 
 590   0.0000       2.099611        57.1333 
 591   0.0000       2.101342        57.1804 
 592   0.0000       2.110883        57.4400 
 593   0.0000       2.117578        57.6222 
 594   0.0000       2.122381        57.7529 
 595   0.0000       2.131630        58.0046 
 596   0.0000       2.132093        58.0172 
 597   0.0000       2.141312        58.2681 
 598   0.0000       2.144951        58.3671 
 599   0.0000       2.153556        58.6013 
 600   0.0000       2.155542        58.6553 
 601   0.0000       2.163445        58.8703 
 602   0.0000       2.181170        59.3527 
 603   0.0000       2.184771        59.4506 
 604   0.0000       2.191630        59.6373 
 605   0.0000       2.198498        59.8242 
 606   0.0000       2.202555        59.9346 
 607   0.0000       2.208813        60.1049 
 608   0.0000       2.217183        60.3326 
 609   0.0000       2.218976        60.3814 
 610   0.0000       2.223238        60.4974 
 611   0.0000       2.224008        60.5183 
 612   0.0000       2.227915        60.6247 
 613   0.0000       2.235718        60.8370 
 614   0.0000       2.239930        60.9516 
 615   0.0000       2.248999        61.1984 
 616   0.0000       2.252690        61.2988 
 617   0.0000       2.258362        61.4532 
 618   0.0000       2.262170        61.5568 
 619   0.0000       2.265202        61.6393 
 620   0.0000       2.273001        61.8515 
 621   0.0000       2.275338        61.9151 
 622   0.0000       2.283510        62.1375 
 623   0.0000       2.288644        62.2772 
 624   0.0000       2.293282        62.4034 
 625   0.0000       2.297731        62.5244 
 626   0.0000       2.307796        62.7983 
 627   0.0000       2.315962        63.0205 
 628   0.0000       2.319513        63.1171 
 629   0.0000       2.326979        63.3203 
 630   0.0000       2.332568        63.4724 
 631   0.0000       2.338356        63.6299 
 632   0.0000       2.345158        63.8150 
 633   0.0000       2.351556        63.9891 
 634   0.0000       2.355260        64.0899 
 635   0.0000       2.367249        64.4161 
 636   0.0000       2.372276        64.5529 
 637   0.0000       2.378752        64.7291 
 638   0.0000       2.383919        64.8697 
 639   0.0000       2.393768        65.1377 
 640   0.0000       2.395680        65.1898 
 641   0.0000       2.403204        65.3945 
 642   0.0000       2.411800        65.6284 
 643   0.0000       2.427949        66.0678 
 644   0.0000       2.430573        66.1393 
 645   0.0000       2.437815        66.3363 
 646   0.0000       2.443852        66.5006 
 647   0.0000       2.457420        66.8698 
 648   0.0000       2.468556        67.1728 
 649   0.0000       2.473176        67.2985 
 650   0.0000       2.479164        67.4615 
 651   0.0000       2.481327        67.5203 
 652   0.0000       2.516955        68.4898 
 653   0.0000       2.534308        68.9620 
 654   0.0000       2.550254        69.3959 
 655   0.0000       2.555498        69.5386 
 656   0.0000       2.564607        69.7865 
 657   0.0000       2.568538        69.8935 
 658   0.0000       2.572055        69.9892 
 659   0.0000       2.580763        70.2261 
 660   0.0000       2.582231        70.2661 
 661   0.0000       2.587310        70.4043 
 662   0.0000       2.592473        70.5448 
 663   0.0000       2.601661        70.7948 
 664   0.0000       2.607343        70.9494 
 665   0.0000       2.619182        71.2716 
 666   0.0000       2.622665        71.3663 
 667   0.0000       2.627052        71.4857 
 668   0.0000       2.630516        71.5800 
 669   0.0000       2.635162        71.7064 
 670   0.0000       2.643974        71.9462 
 671   0.0000       2.646476        72.0143 
 672   0.0000       2.656319        72.2821 
 673   0.0000       2.658254        72.3348 
 674   0.0000       2.663359        72.4737 
 675   0.0000       2.667520        72.5869 
 676   0.0000       2.668264        72.6072 
 677   0.0000       2.670254        72.6613 
 678   0.0000       2.675059        72.7921 
 679   0.0000       2.676351        72.8272 
 680   0.0000       2.682074        72.9829 
 681   0.0000       2.686663        73.1078 
 682   0.0000       2.695228        73.3409 
 683   0.0000       2.704315        73.5882 
[...]
 160   8.826     140.5   0.026408   0.021620  -30.037140  -26.730722     0.07 (  63->  82)    0.07 (  72->  81)    0.06 (  58->  82)
 161   8.839     140.3   0.012568   0.011576  -10.575384  -10.707449     0.07 (  73->  89)    0.04 (  74->  83)    0.04 (  41->  78)
 162   8.841     140.2   0.015561   0.014796  25.928487  28.677992     0.09 (  75-> 104)    0.05 (  76-> 105)    0.03 (  71-> 103)
 163   8.855     140.0   0.011133   0.009159   3.690434   3.795068     0.10 (  72->  92)    0.04 (  41->  78)    0.03 (  72->  91)
 164   8.864     139.9   0.019341   0.017454  38.464789  36.992476     0.08 (  75-> 105)    0.07 (  75-> 104)    0.03 (  72->  92)
 165   8.877     139.7   0.005766   0.006093  17.920758  18.986731     0.03 (  76-> 107)    0.02 (  76-> 105)    0.02 (  72->  83)
 166   8.892     139.4   0.005228   0.004366  -26.403567  -24.371490     0.06 (  72->  86)    0.05 (  76-> 107)    0.05 (  72->  87)
 167   8.898     139.3   0.031353   0.029082  -57.376842  -55.854979     0.04 (  73->  84)    0.04 (  73->  83)    0.02 (  57->  82)
 168   8.918     139.0   0.002897   0.003115  -25.153896  -28.488103     0.06 (  69->  88)    0.05 (  52->  81)    0.03 (  51->  81)
 169   8.932     138.8   0.031055   0.026791  62.515545  58.348291     0.07 (  52->  81)    0.05 (  43->  78)    0.04 (  50->  81)
 170   8.940     138.7   0.009130   0.007453  11.810891  10.168887     0.10 (  73->  84)    0.07 (  74->  84)    0.05 (  74->  83)
 171   8.952     138.5   0.011277   0.009242   9.894997   9.334229     0.09 (  57->  82)    0.04 (  71-> 102)    0.04 (  69->  90)
 172   8.959     138.4   0.001878   0.001976  -14.058894  -14.572651     0.13 (  57->  82)    0.04 (  75-> 102)    0.03 (  61->  82)
 173   8.974     138.2   0.004419   0.003722   7.791715   6.511731     0.06 (  57->  82)    0.04 (  69->  91)    0.03 (  69->  93)
 174   8.984     138.0   0.046118   0.045003  -2.455835  -2.455662     0.06 (  41->  78)    0.05 (  63->  83)    0.02 (  63->  84)
 175   8.996     137.8   0.014495   0.012986  -41.094205  -40.306968     0.04 (  76-> 107)    0.02 (  70-> 102)    0.02 (  68->  90)
 176   9.009     137.6   0.041042   0.037664  -10.816896  -9.914094     0.04 (  69->  94)    0.03 (  68-> 102)    0.03 (  69->  90)
 177   9.015     137.5   0.004433   0.003971  28.789445  26.949282     0.10 (  65->  79)    0.08 (  53->  80)    0.07 (  65->  80)
 178   9.025     137.4   0.004688   0.003688   9.003411   8.393890     0.04 (  42->  78)    0.03 (  65->  79)    0.02 (  63->  83)
 179   9.029     137.3   0.062775   0.054466  32.150126  30.001473     0.05 (  42->  78)    0.02 (  68->  98)    0.02 (  70-> 102)
 180   9.036     137.2   0.015680   0.013146  21.845319  20.036275     0.15 (  64->  78)    0.11 (  43->  78)    0.05 (  57->  78)
 181   9.062     136.8   0.017775   0.016143   2.502496   2.299091     0.05 (  42->  78)    0.04 (  43->  78)    0.03 (  77->  93)
 182   9.064     136.8   0.016871   0.013231  11.054763   9.370480     0.04 (  43->  78)    0.03 (  62->  83)    0.03 (  69->  86)
 183   9.072     136.7   0.027599   0.025762  -34.426673  -35.061837     0.07 (  64->  83)    0.06 (  62->  83)    0.06 (  41->  78)
 184   9.083     136.5   0.057423   0.052633  -18.402245  -17.533877     0.05 (  43->  78)    0.04 (  60->  82)    0.03 (  76-> 109)
 185   9.092     136.4   0.139484   0.121289  14.300459  12.956410     0.04 (  75-> 102)    0.03 (  62->  83)    0.03 (  41->  78)
 186   9.117     136.0   0.007809   0.006911  -18.999877  -15.535284     0.04 (  71->  83)    0.03 (  72->  92)    0.03 (  42->  78)
 187   9.124     135.9   0.013063   0.010524   6.654953   6.603273     0.04 (  74-> 101)    0.03 (  73->  95)    0.03 (  65->  80)
 188   9.130     135.8   0.003785   0.003416   1.034785   1.135855     0.09 (  73-> 101)    0.07 (  74-> 101)    0.05 (  73->  86)
 189   9.145     135.6   0.010499   0.009208  -17.089718  -15.964187     0.03 (  70->  88)    0.03 (  69->  94)    0.02 (  75->  93)
 190   9.157     135.4   0.018789   0.017050  -13.580606  -13.082527     0.18 (  65->  79)    0.03 (  42->  78)    0.02 (  72->  92)
 191   9.158     135.4   0.026060   0.023750  -16.267205  -14.760565     0.20 (  65->  79)    0.03 (  72->  92)    0.03 (  76-> 109)
 192   9.164     135.3   0.025346   0.022766  -24.486285  -24.320226     0.05 (  42->  78)    0.03 (  72->  92)    0.02 (  65->  79)
 193   9.171     135.2   0.033576   0.029885  31.404292  31.231231     0.05 (  75->  85)    0.03 (  69->  95)    0.03 (  69->  98)
 194   9.187     135.0   0.010242   0.007972  -48.324821  -41.772295     0.04 (  41->  78)    0.03 (  61->  84)    0.03 (  64->  83)
 195   9.201     134.8   0.006030   0.005406   1.950533   1.955683     0.06 (  41->  78)    0.03 (  72->  91)    0.03 (  67->  94)
 196   9.209     134.6   0.013828   0.011475  -1.746041  -1.707890     0.05 (  71->  83)    0.02 (  77->  92)    0.02 (  70->  88)
 197   9.212     134.6   0.025152   0.022750  30.738451  29.153948     0.12 (  65->  79)    0.08 (  42->  78)    0.05 (  64->  78)
 198   9.235     134.3   0.016516   0.014182  -7.286428  -5.743329     0.04 (  41->  78)    0.03 (  59->  83)    0.02 (  48->  78)
 199   9.240     134.2   0.006491   0.004751  -4.281977  -3.717782     0.05 (  65->  79)    0.05 (  61->  79)    0.05 (  65->  80)
 200   9.258     133.9   0.191133   0.170528  24.745222  23.327704     0.09 (  75->  85)    0.03 (  59->  83)    0.02 (  55->  79)
 201   9.263     133.8   0.054112   0.044845  -30.617824  -27.852176     0.04 (  75->  97)    0.03 (  67->  81)    0.03 (  53->  82)
 202   9.270     133.8   0.008185   0.006343  -10.351861  -9.100355     0.10 (  56->  82)    0.06 (  53->  82)    0.06 (  52->  82)
 203   9.279     133.6   0.098144   0.091701  -12.471467  -13.208479     0.19 (  75->  85)    0.06 (  60->  83)    0.03 (  73->  89)
 204   9.285     133.5   0.003475   0.002797  15.112279  14.064226     0.12 (  67->  81)    0.05 (  40->  79)    0.04 (  66->  81)
 205   9.291     133.4   0.028732   0.026618  -30.586942  -29.030138     0.07 (  67->  81)    0.05 (  66->  81)    0.04 (  69->  81)
 206   9.310     133.2   0.002025   0.002004   7.439354   7.390563     0.10 (  67->  81)    0.04 (  75->  85)    0.04 (  66->  81)
 207   9.314     133.1   0.054100   0.048372  -40.467514  -37.978313     0.07 (  75->  85)    0.03 (  67->  81)    0.03 (  67->  88)
 208   9.319     133.0   0.020298   0.019257  -36.669667  -30.676565     0.07 (  77->  92)    0.04 (  74->  86)    0.03 (  75->  85)
 209   9.344     132.7   0.027918   0.022835  -32.817972  -30.195273     0.06 (  65->  80)    0.03 (  61->  83)    0.03 (  68->  96)
 210   9.349     132.6   0.009463   0.008477  -13.497628  -12.414144     0.36 (  71->  82)    0.25 (  70->  82)    0.01 (  68->  96)
 211   9.357     132.5   0.007077   0.006161  -2.359584  -2.352388     0.07 (  71->  82)    0.05 (  70->  82)    0.04 (  62->  78)
 212   9.361     132.5   0.007266   0.005674  -4.997006  -4.479004     0.04 (  77->  99)    0.04 (  77-> 103)    0.02 (  76-> 113)
 213   9.371     132.3   0.011066   0.010335  -1.784772  -1.890310     0.07 (  73->  86)    0.04 (  77->  92)    0.04 (  65->  80)
 214   9.378     132.2   0.006611   0.005806  13.851416  13.394276     0.03 (  62->  78)    0.03 (  42->  78)    0.03 (  66->  86)
 215   9.389     132.1   0.008570   0.007785  -16.318295  -15.311517     0.06 (  62->  78)    0.05 (  61->  78)    0.05 (  42->  78)
 216   9.400     131.9   0.002876   0.003028   0.442657  -0.454844     0.08 (  57->  85)    0.07 (  62->  78)    0.03 (  61->  78)
 217   9.405     131.8   0.012476   0.010778  -12.374682  -10.263966     0.05 (  77->  92)    0.03 (  77-> 112)    0.03 (  77->  91)
 218   9.411     131.7   0.082345   0.076479  -25.601092  -24.287458     0.03 (  62->  80)    0.03 (  77->  97)    0.03 (  64->  80)
 219   9.423     131.6   0.021972   0.020264  -55.444451  -52.874001     0.07 (  57->  85)    0.03 (  56->  85)    0.02 (  37->  78)
 220   9.445     131.3   0.032782   0.028432  -2.282914  -0.766388     0.04 (  63->  85)    0.04 (  40->  79)    0.03 (  62->  78)
 221   9.447     131.2   0.034346   0.028718  53.493165  49.681931     0.07 (  58->  83)    0.05 (  57->  85)    0.05 (  42->  78)
 222   9.466     131.0   0.151665   0.128078  62.940495  64.364081     0.05 (  64->  86)    0.03 (  62->  80)    0.02 (  64->  81)
 223   9.472     130.9   0.027542   0.023652   4.298338   2.078086     0.10 (  63->  85)    0.05 (  72-> 101)    0.04 (  72->  91)
 224   9.488     130.7   0.034399   0.029239  11.085452  10.631578     0.04 (  71->  86)    0.03 (  64->  81)    0.02 (  76->  93)
 225   9.491     130.6   0.032123   0.027862  20.732868  19.555941     0.04 (  71->  86)    0.04 (  77-> 111)    0.04 (  36->  79)
 226   9.498     130.5   0.027798   0.022777   6.087452   5.172978     0.17 (  69->  82)    0.04 (  76->  88)    0.03 (  66->  82)
 227   9.511     130.4   0.005759   0.004432  -0.049230  -0.348069     0.06 (  63->  85)    0.05 (  71->  86)    0.04 (  70->  86)
 228   9.515     130.3   0.007900   0.006474   3.763278   3.747449     0.13 (  69->  82)    0.03 (  39->  79)    0.03 (  62->  81)
 229   9.525     130.2   0.011000   0.008222  -3.882507  -1.913563     0.11 (  64->  81)    0.06 (  39->  79)    0.04 (  62->  81)
 230   9.536     130.0   0.026957   0.023075  16.031638  10.591252     0.04 (  57->  83)    0.03 (  71->  86)    0.02 (  72-> 101)
 231   9.554     129.8   0.005787   0.004844  -9.436201  -8.481451     0.08 (  69->  82)    0.05 (  63->  79)    0.03 (  69->  84)
 232   9.562     129.7   0.059671   0.051994  -18.647686  -16.352287     0.08 (  63->  79)    0.04 (  69->  84)    0.04 (  76->  88)
 233   9.573     129.5   0.055948   0.047351  -16.083230  -15.095871     0.05 (  71->  86)    0.03 (  72->  96)    0.03 (  72->  87)
 234   9.580     129.4   0.020830   0.018831  36.253272  34.484623     0.08 (  54->  82)    0.05 (  69->  82)    0.03 (  73->  87)
 235   9.593     129.2   0.021334   0.017534  -33.779724  -29.647353     0.07 (  73->  87)    0.06 (  74-> 106)    0.04 (  74->  87)
 236   9.599     129.2   0.020922   0.017347  22.337485  20.506741     0.05 (  54->  82)    0.03 (  77-> 110)    0.03 (  72->  84)
 237   9.615     129.0   0.018278   0.016588  10.770170  10.075917     0.05 (  72->  84)    0.05 (  63->  79)    0.03 (  54->  82)
 238   9.621     128.9   0.043934   0.037138  -23.387966  -22.898599     0.04 (  69->  84)    0.03 (  71->  83)    0.02 (  49->  78)
 239   9.621     128.9   0.142913   0.119108  15.974997  14.525539     0.14 (  63->  79)    0.05 (  64->  86)    0.04 (  70->  86)
 240   9.636     128.7   0.021933   0.018477  29.588881  27.696255     0.04 (  41->  78)    0.03 (  63->  85)    0.02 (  74->  88)
 241   9.641     128.6   0.002438   0.002307  14.982366  14.675760     0.06 (  51->  82)    0.05 (  54->  82)    0.03 (  49->  82)
 242   9.647     128.5   0.003951   0.003483  -7.440303  -6.825851     0.07 (  58->  85)    0.03 (  51->  82)    0.03 (  77-> 101)
 243   9.662     128.3   0.033795   0.029243  16.825752  13.956387     0.05 (  51->  82)    0.04 (  58->  85)    0.03 (  39->  79)
 244   9.671     128.2   0.012469   0.010705  -27.606576  -24.461933     0.05 (  67->  84)    0.03 (  66->  84)    0.03 (  69->  83)
 245   9.676     128.1   0.060275   0.051251  -37.405955  -34.633135     0.06 (  64->  87)    0.04 (  62->  87)    0.02 (  51->  82)
 246   9.683     128.0   0.071262   0.062663  -6.542741  -5.367543     0.12 (  63->  79)    0.03 (  36->  79)    0.03 (  64->  86)
 247   9.708     127.7   0.043702   0.038657  -1.911650  -1.386564     0.04 (  46->  80)    0.04 (  36->  79)    0.03 (  58->  84)
 248   9.716     127.6   0.021639   0.019249  10.686123  10.613476     0.04 (  64->  87)    0.03 (  68->  83)    0.03 (  57->  83)
 249   9.727     127.5   0.017796   0.015982   7.062448   7.526455     0.06 (  69->  97)    0.05 (  67->  97)    0.05 (  69->  98)
 250   9.734     127.4   0.026614   0.022991  21.522374  19.710683     0.08 (  47->  80)    0.04 (  38->  79)    0.04 (  52->  80)
 251   9.743     127.2   0.040414   0.036380  22.687689  18.284972     0.05 (  68->  83)    0.03 (  63->  79)    0.02 (  46->  80)
 252   9.754     127.1   0.004017   0.004668  10.190506   9.246715     0.07 (  71->  87)    0.04 (  70->  87)    0.03 (  77-> 119)
 253   9.762     127.0   0.010628   0.009389  -18.195792  -16.915178     0.03 (  74->  86)    0.03 (  73->  87)    0.03 (  76-> 103)
 254   9.768     126.9   0.033956   0.028436  31.171456  28.707514     0.05 (  74->  87)    0.03 (  67->  87)    0.03 (  69-> 102)
 255   9.780     126.8   0.015313   0.012382  -10.054559  -9.215958     0.10 (  38->  79)    0.09 (  39->  79)    0.04 (  56->  79)
 256   9.788     126.7   0.203369   0.175499  29.540200  25.843110     0.04 (  46->  80)    0.03 (  44->  81)    0.02 (  68-> 102)
 257   9.794     126.6   0.058753   0.049284  11.912522  12.220018     0.03 (  76-> 112)    0.03 (  38->  79)    0.03 (  73->  94)
 258   9.814     126.3   0.057346   0.050388  55.118743  53.143839     0.05 (  69-> 100)    0.05 (  66->  83)    0.05 (  67->  83)
 259   9.822     126.2   0.020451   0.019700  10.727196  10.378238     0.04 (  73-> 105)    0.04 (  75-> 103)    0.04 (  74-> 105)
 260   9.837     126.0   0.043472   0.038388  -7.965825  -7.355760     0.10 (  63->  80)    0.03 (  66->  83)    0.02 (  67->  84)
 261   9.853     125.8   0.056683   0.053779  -1.530925  -2.746453     0.11 (  60->  85)    0.07 (  70->  85)    0.07 (  71->  85)
 262   9.856     125.8   0.012229   0.011329   4.941307   4.729351     0.09 (  74->  86)    0.07 (  73->  87)    0.04 (  74-> 106)
 263   9.869     125.6   0.004396   0.003359  -0.980860  -1.021031     0.61 (  68->  82)    0.06 (  67->  82)    0.03 (  68->  83)
 264   9.882     125.5   0.009992   0.008525  26.034576  24.288599     0.11 (  73-> 104)    0.08 (  73->  86)    0.08 (  73-> 105)
 265   9.888     125.4   0.006073   0.004327   7.038965   5.756070     0.17 (  68->  82)    0.06 (  65->  89)    0.03 (  68->  83)
 266   9.897     125.3   0.035642   0.028795  -22.594173  -20.587927     0.19 (  65->  89)    0.04 (  63->  80)    0.03 (  66->  89)
 267   9.919     125.0   0.031820   0.026439  -14.803810  -13.718511     0.08 (  68->  86)    0.04 (  71->  87)    0.03 (  77-> 106)
 268   9.924     124.9   0.006699   0.005667  -16.605873  -15.387261     0.06 (  72->  87)    0.05 (  72->  86)    0.03 (  72-> 101)
 269   9.929     124.9   0.008280   0.006214   2.224816   2.180379     0.04 (  67->  86)    0.03 (  73->  86)    0.03 (  75->  89)
 270   9.935     124.8   0.011335   0.009512  -10.306383  -9.299798     0.04 (  68->  86)    0.04 (  75-> 103)    0.04 (  66->  82)
 271   9.944     124.7   0.064469   0.054643  72.444117  66.955599     0.10 (  72->  86)    0.07 (  72->  87)    0.06 (  71->  87)
 272   9.950     124.6   0.004874   0.004363  -8.185668  -7.639321     0.10 (  66->  82)    0.08 (  59->  78)    0.06 (  67->  82)
 273   9.955     124.5   0.003281   0.002844   2.786590   1.588815     0.27 (  59->  78)    0.10 (  58->  78)    0.03 (  61->  78)
 274   9.965     124.4   0.012673   0.010673  -13.381373  -11.750896     0.08 (  66->  86)    0.07 (  69->  86)    0.06 (  71->  87)
 275   9.970     124.4   0.016418   0.014326  -4.345358  -4.614717     0.14 (  65->  89)    0.06 (  59->  78)    0.04 (  66->  82)
 276   9.988     124.1   0.010288   0.008393  12.707871  11.767269     0.10 (  44->  81)    0.06 (  46->  81)    0.03 (  65->  89)
 277   9.990     124.1   0.007802   0.005575   0.022252   1.187089     0.08 (  65->  89)    0.04 (  76->  92)    0.03 (  76->  91)
 278   9.994     124.1   0.021411   0.020194  -34.105432  -32.692395     0.04 (  76->  90)    0.04 (  71->  87)    0.04 (  77-> 116)

sTD-DFT done

Total run time:       41.827 sec

           *** ORCA-CIS/TD-DFT FINISHED WITHOUT ERROR ***


-------------------------------------------------------------------------------
                          DFT DISPERSION CORRECTION                            
                                                                               
                              DFTD3 V3.1  Rev 1                                
                              USING zero damping                               
-------------------------------------------------------------------------------
The omegaB97X-D3 functional is recognized. Fit by Chai et al.
Active option DFTDOPT                   ...         3   

molecular C6(AA) [au] = 42074.543055 


            DFT-D V3
 parameters
 s6 scaling factor         :     1.0000 
 rs6 scaling factor        :     1.2810 
 s8 scaling factor         :     1.0000 
 rs8 scaling factor        :     1.0940 
 Damping factor alpha6     :    14.0000 
 Damping factor alpha8     :    16.0000 
 ad hoc parameters k1-k3   :    16.0000     1.3333    -4.0000 

 Edisp/kcal,au: -14.229103705158  -0.022675517702 
 E6   /kcal   :  -6.821788615 
 E8   /kcal   :  -7.407315090 
 % E8         :  52.057495988 

-------------------------   ----------------
Dispersion correction           -0.022675518
-------------------------   ----------------


-------------------------   --------------------
FINAL SINGLE POINT ENERGY     -2108.117356484936
-------------------------   --------------------


                            ***************************************
                            *     ORCA property calculations      *
                            ***************************************

                                    ---------------------
                                    Active property flags
                                    ---------------------
   (+) Dipole Moment
   (+) Quadrupole Moment


------------------------------------------------------------------------------
                       ORCA ELECTRIC PROPERTIES CALCULATION
------------------------------------------------------------------------------

Dipole Moment Calculation                       ... on
Quadrupole Moment Calculation                   ... on
Polarizability Calculation                      ... off
GBWName                                         ... total_job2.gbw
Electron density file                           ... total_job2.scfp.tmp

-------------
DIPOLE MOMENT
-------------
                                X             Y             Z
Electronic contribution:     10.79788       1.13503       1.55617
Nuclear contribution   :    -11.52095      -2.01224      -1.75953
                        -----------------------------------------
Total Dipole Moment    :     -0.72307      -0.87720      -0.20336
                        -----------------------------------------
Magnitude (a.u.)       :      1.15485
Magnitude (Debye)      :      2.93539


------------------------
QUADRUPOLE MOMENT (A.U.)
------------------------

                XX           YY           ZZ           XY           XZ           YZ
  NUC     23465.52751   1226.35633   2549.51851   -372.82966  -1799.30829   1084.86835
  EL     -23620.22452  -1375.81479  -2691.13126    366.01465   1806.88068  -1073.90911
  TOT      -154.69702   -149.45846   -141.61275     -6.81501      7.57239     10.95925

--------------------------------------------------------------------------
[[19286,1],13]: A high-performance Open MPI point-to-point messaging module
was unable to find any relevant network interfaces:

Module: OpenFabrics (openib)
  Host: cx1-103-2-3

Another transport will be used instead, although this may result in
lower performance.
--------------------------------------------------------------------------

Timings for individual modules:

Sum of individual times         ...      171.510 sec (=   2.858 min)
GTO integral calculation        ...        5.474 sec (=   0.091 min)   3.2 %
SCF iterations                  ...      121.530 sec (=   2.026 min)  70.9 %
CIS module                      ...       44.506 sec (=   0.742 min)  25.9 %



                             ****ORCA TERMINATED NORMALLY****
TOTAL RUN TIME: 0 days 0 hours 10 minutes 11 seconds 446 msec
