
                                 *****************
                                 * O   R   C   A *
                                 *****************

           --- An Ab Initio, DFT and Semiempirical electronic structure package ---

                  #######################################################
                  #                        -***-                        #
                  #  Department of molecular theory and spectroscopy    #
                  #              Directorship: Frank Neese              #
                  # Max Planck Institute for Chemical Energy Conversion #
                  #                  D-45470 Muelheim/Ruhr              #
                  #                       Germany                       #
                  #                                                     #
                  #                  All rights reserved                #
                  #                        -***-                        #
                  #######################################################


                         Program Version 4.0.0 -  RELEASE  -


 With contributions from (in alphabetic order):
   Daniel Aravena         : Magnetic Properties
   Michael Atanasov       : Ab Initio Ligand Field Theory
   Ute Becker             : Parallelization
   Martin Brehm           : Molecular dynamics
   Dmytro Bykov           : SCF Hessian
   Vijay G. Chilkuri      : MRCI spin determinant printing
   Dipayan Datta          : RHF DLPNO-CCSD density
   Achintya Kumar Dutta   : EOM-CC, STEOM-CC
   Dmitry Ganyushin       : Spin-Orbit,Spin-Spin,Magnetic field MRCI
   Yang Guo               : DLPNO-NEVPT2, CIM, IAO-localization
   Andreas Hansen         : Spin unrestricted coupled pair/coupled cluster methods
   Lee Huntington         : MR-EOM, pCC
   Robert Izsak           : Overlap fitted RIJCOSX, COSX-SCS-MP3, EOM
   Christian Kollmar      : KDIIS, OOCD, Brueckner-CCSD(T), CCSD density
   Simone Kossmann        : Meta GGA functionals, TD-DFT gradient, OOMP2, MP2 Hessian
   Martin Krupicka        : AUTO-CI
   Dagmar Lenk            : GEPOL surface
   Dimitrios Liakos       : Extrapolation schemes; parallel MDCI
   Dimitrios Manganas     : ROCIS; embedding schemes
   Dimitrios Pantazis     : SARC Basis sets
   Taras Petrenko         : DFT Hessian,TD-DFT gradient, ASA, ECA, R-Raman, ABS, FL, XAS/XES, NRVS
   Peter Pinski           : DLPNO-MP2
   Christoph Reimann      : Effective Core Potentials
   Marius Retegan         : Local ZFS, SOC
   Christoph Riplinger    : Optimizer, TS searches, QM/MM, DLPNO-CCSD(T), (RO)-DLPNO pert. Triples
   Tobias Risthaus        : Range-separated hybrids, TD-DFT gradient, RPA, STAB
   Michael Roemelt        : Restricted open shell CIS
   Masaaki Saitow         : Open-shell DLPNO
   Barbara Sandhoefer     : DKH picture change effects
   Kantharuban Sivalingam : CASSCF convergence, NEVPT2, FIC-MRCI
   Georgi Stoychev        : AutoAux
   Boris Wezisla          : Elementary symmetry handling
   Frank Wennmohs         : Technical directorship


 We gratefully acknowledge several colleagues who have allowed us to
 interface, adapt or use parts of their codes:
   Stefan Grimme, W. Hujo, H. Kruse,             : VdW corrections, initial TS optimization,
                  C. Bannwarth                     DFT functionals, gCP, sTDA/sTD-DF
   Ed Valeev                                     : LibInt (2-el integral package), F12 methods
   Garnet Chan, S. Sharma, J. Yang, R. Olivares  : DMRG
   Ulf Ekstrom                                   : XCFun DFT Library
   Mihaly Kallay                                 : mrcc  (arbitrary order and MRCC methods)
   Jiri Pittner, Ondrej Demel                    : Mk-CCSD
   Frank Weinhold                                : gennbo (NPA and NBO analysis)
   Christopher J. Cramer and Donald G. Truhlar   : smd solvation model


 Your calculation uses the libint2 library for the computation of 2-el integrals
 For citations please refer to: http://libint.valeyev.net

 This ORCA versions uses:
   CBLAS   interface :  Fast vector & matrix operations
   LAPACKE interface :  Fast linear algebra routines
   SCALAPACK package :  Parallel linear algebra routines


Your calculation utilizes the atom-pairwise dispersion correction
with the zero-damping scheme (D30)
Cite in your paper:
S.Grimme, J.Antony, S.Ehrlich and H.Krieg, J.Chem.Phys., 132, (2010), 154104 
   

XCFun DFT library Copyright 2009-2010 Ulf Ekstrom and contributors.
See http://admol.org/xcfun for more information. This is free soft-
ware; see the source code for copying conditions. There is ABSOLUTELY
NO WARRANTY; not even for MERCHANTABILITY or FITNESS FOR A PARTICULAR
PURPOSE. For details see the documentation. Scientific users of this 
library should cite U. Ekstrom, L. Visscher, R. Bast, A. J. Thorvald-
sen and K. Ruud; J.Chem.Theor.Comp. 2010, DOI: 10.1021/ct100117s
XCFun Version 0.99 
Your calculation utilizes the basis: def2-TZVP
   F. Weigend and R. Ahlrichs, Phys. Chem. Chem. Phys. 7, 3297 (2005).

Your calculation utilizes the auxiliary basis: def2/J
   F. Weigend, Phys. Chem. Chem. Phys. 8, 1057 (2006).

================================================================================
                                        WARNINGS
                       Please study these warnings very carefully!
================================================================================

Warning: TCutStore was < 0. Adjusted to Thresh (uncritical)
INFO   : Checking CIS options ...

WARNING: CIS/ROCIS methods need fully converged wavefunctions
  ===> : Setting SCFConvForced true
         You can overwrite this default with %scf ConvForced false 


INFO   : the flag for use of LIBINT has been found!

Your calculation utilizes the atom-pairwise dispersion correction
with the zero-damping scheme (D30)
Cite in your paper:
S.Grimme, J.Antony, S.Ehrlich and H.Krieg, J.Chem.Phys., 132, (2010), 154104 
   

XCFun DFT library Copyright 2009-2010 Ulf Ekstrom and contributors.
See http://admol.org/xcfun for more information. This is free soft-
ware; see the source code for copying conditions. There is ABSOLUTELY
NO WARRANTY; not even for MERCHANTABILITY or FITNESS FOR A PARTICULAR
PURPOSE. For details see the documentation. Scientific users of this 
library should cite U. Ekstrom, L. Visscher, R. Bast, A. J. Thorvald-
sen and K. Ruud; J.Chem.Theor.Comp. 2010, DOI: 10.1021/ct100117s
XCFun Version 0.99 
Your calculation utilizes the basis: def2-TZVP
   F. Weigend and R. Ahlrichs, Phys. Chem. Chem. Phys. 7, 3297 (2005).

Your calculation utilizes the auxiliary basis: def2/J
   F. Weigend, Phys. Chem. Chem. Phys. 8, 1057 (2006).

================================================================================
                                        WARNINGS
                       Please study these warnings very carefully!
================================================================================

INFO   : Checking CIS options ...

INFO   : the flag for use of LIBINT has been found!

================================================================================
                                       INPUT FILE
================================================================================
NAME = total.inp
|  1> # 
|  2> !wB97X-D3 def2-TZVP def2/J RIJCOSX Grid5 FinalGrid6 TightSCF
|  3> %pal 
|  4>  nprocs 24
|  5> end
|  6> %tddft
|  7>   Mode sTDDFT
|  8>   nroots 2
|  9>   Ethresh 10.0
| 10>   maxcore 5000
| 11>   triplets true
| 12> end
| 13> * xyz 0 1 
| 14> C -5.10611769 -2.36743971 1.08663598
| 15> C -4.16930848 -1.42270710 0.67594069
| 16> C -4.59427218 -0.10739967 0.40697190
| 17> C -5.96992497 0.20898541 0.58967709
| 18> C -6.91694098 -0.74270874 0.99787228
| 19> C -6.46400942 -2.03680302 1.24003157
| 20> C -3.93788944 1.12524822 -0.00155524
| 21> C -4.95397646 2.12639695 -0.01676956
| 22> N -6.16482368 1.55251942 0.32098820
| 23> C -4.69770886 3.47312234 -0.31461845
| 24> C -3.37990896 3.82864111 -0.59255321
| 25> C -2.36061120 2.86742686 -0.59280589
| 26> C -2.60775735 1.50851956 -0.32170021
| 27> H -1.34713465 3.17448537 -0.83672265
| 28> H -7.04614760 2.04567986 0.39534160
| 29> H -3.13633662 4.86225697 -0.82069256
| 30> H -3.12767544 -1.70882663 0.57377857
| 31> H -7.96252640 -0.47592182 1.12583962
| 32> H -7.16788485 -2.80091465 1.55862847
| 33> H -4.78234633 -3.38352892 1.29387503
| 34> C 4.06503816 -1.07533291 -0.34226177
| 35> N 3.55721817 -2.27255184 -0.66935377
| 36> O 2.21088162 -2.12409813 -0.74876165
| 37> C 1.86808100 -0.85452954 -0.47699128
| 38> C 3.00726007 -0.12398316 -0.20668808
| 39> C 0.45902851 -0.48739675 -0.50894479
| 40> N -0.50252295 -1.37455387 -0.80396716
| 41> O -1.68122498 -0.70197284 -0.73937359
| 42> C -1.47487950 0.58081582 -0.40725687
| 43> C -0.11583837 0.79070905 -0.25411371
| 44> H 0.38919811 1.70525593 0.02044512
| 45> H 3.06805996 0.92442364 0.04714305
| 46> C 5.50399396 -0.84965870 -0.16618130
| 47> C 5.99185006 0.39632943 0.17033516
| 48> C 7.38670721 0.65521460 0.35053476
| 49> C 8.32790545 -0.32565198 0.19862405
| 50> C 7.90345569 -1.65681885 -0.15261387
| 51> C 6.46546572 -1.93204497 -0.34036525
| 52> N 8.75252597 -2.65864296 -0.31728107
| 53> S 7.71353649 -4.15654221 -0.76034041
| 54> N 6.11816541 -3.16457257 -0.66161512
| 55> H 5.29739379 1.22164399 0.30647790
| 56> H 7.69273515 1.66418477 0.61543815
| 57> H -5.49560373 4.21024781 -0.31824545
| 58> H 9.38497058 -0.11760560 0.33799371
| 59> *
| 60> $new_job
| 61> # 
| 62> !wB97X-D3 def2-TZVP def2/J RIJCOSX Grid5 FinalGrid6 TightSCF
| 63> %pal 
| 64>  nprocs 24
| 65> end
| 66> %elprop
| 67>    dipole     true
| 68>    quadrupole true
| 69> end
| 70> %tddft
| 71>   Mode sTDDFT
| 72>   nroots 2
| 73>   Ethresh 10.0
| 74>   maxcore 5000
| 75> end
| 76> * xyz 0 1 
| 77> C -5.10611769 -2.36743971 1.08663598
| 78> C -4.16930848 -1.42270710 0.67594069
| 79> C -4.59427218 -0.10739967 0.40697190
| 80> C -5.96992497 0.20898541 0.58967709
| 81> C -6.91694098 -0.74270874 0.99787228
| 82> C -6.46400942 -2.03680302 1.24003157
| 83> C -3.93788944 1.12524822 -0.00155524
| 84> C -4.95397646 2.12639695 -0.01676956
| 85> N -6.16482368 1.55251942 0.32098820
| 86> C -4.69770886 3.47312234 -0.31461845
| 87> C -3.37990896 3.82864111 -0.59255321
| 88> C -2.36061120 2.86742686 -0.59280589
| 89> C -2.60775735 1.50851956 -0.32170021
| 90> H -1.34713465 3.17448537 -0.83672265
| 91> H -7.04614760 2.04567986 0.39534160
| 92> H -3.13633662 4.86225697 -0.82069256
| 93> H -3.12767544 -1.70882663 0.57377857
| 94> H -7.96252640 -0.47592182 1.12583962
| 95> H -7.16788485 -2.80091465 1.55862847
| 96> H -4.78234633 -3.38352892 1.29387503
| 97> C 4.06503816 -1.07533291 -0.34226177
| 98> N 3.55721817 -2.27255184 -0.66935377
| 99> O 2.21088162 -2.12409813 -0.74876165
|100> C 1.86808100 -0.85452954 -0.47699128
|101> C 3.00726007 -0.12398316 -0.20668808
|102> C 0.45902851 -0.48739675 -0.50894479
|103> N -0.50252295 -1.37455387 -0.80396716
|104> O -1.68122498 -0.70197284 -0.73937359
|105> C -1.47487950 0.58081582 -0.40725687
|106> C -0.11583837 0.79070905 -0.25411371
|107> H 0.38919811 1.70525593 0.02044512
|108> H 3.06805996 0.92442364 0.04714305
|109> C 5.50399396 -0.84965870 -0.16618130
|110> C 5.99185006 0.39632943 0.17033516
|111> C 7.38670721 0.65521460 0.35053476
|112> C 8.32790545 -0.32565198 0.19862405
|113> C 7.90345569 -1.65681885 -0.15261387
|114> C 6.46546572 -1.93204497 -0.34036525
|115> N 8.75252597 -2.65864296 -0.31728107
|116> S 7.71353649 -4.15654221 -0.76034041
|117> N 6.11816541 -3.16457257 -0.66161512
|118> H 5.29739379 1.22164399 0.30647790
|119> H 7.69273515 1.66418477 0.61543815
|120> H -5.49560373 4.21024781 -0.31824545
|121> H 9.38497058 -0.11760560 0.33799371
|122> *
|123> 
|124>                          ****END OF INPUT****
================================================================================


                 $$$$$$$$$$$$$$$$$$$$$$$$$$$$$$$$$$$$$$$$$$$$$$ 
                 $ THERE ARE  2 JOBS TO BE PROCESSED THIS RUN $
                 $$$$$$$$$$$$$$$$$$$$$$$$$$$$$$$$$$$$$$$$$$$$$$ 




                 $$$$$$$$$$$$$$$$  JOB NUMBER  1 $$$$$$$$$$$$$$


                       ****************************
                       * Single Point Calculation *
                       ****************************

---------------------------------
CARTESIAN COORDINATES (ANGSTROEM)
---------------------------------
  C     -5.106118   -2.367440    1.086636
  C     -4.169308   -1.422707    0.675941
  C     -4.594272   -0.107400    0.406972
  C     -5.969925    0.208985    0.589677
  C     -6.916941   -0.742709    0.997872
  C     -6.464009   -2.036803    1.240032
  C     -3.937889    1.125248   -0.001555
  C     -4.953976    2.126397   -0.016770
  N     -6.164824    1.552519    0.320988
  C     -4.697709    3.473122   -0.314618
  C     -3.379909    3.828641   -0.592553
  C     -2.360611    2.867427   -0.592806
  C     -2.607757    1.508520   -0.321700
  H     -1.347135    3.174485   -0.836723
  H     -7.046148    2.045680    0.395342
  H     -3.136337    4.862257   -0.820693
  H     -3.127675   -1.708827    0.573779
  H     -7.962526   -0.475922    1.125840
  H     -7.167885   -2.800915    1.558628
  H     -4.782346   -3.383529    1.293875
  C      4.065038   -1.075333   -0.342262
  N      3.557218   -2.272552   -0.669354
  O      2.210882   -2.124098   -0.748762
  C      1.868081   -0.854530   -0.476991
  C      3.007260   -0.123983   -0.206688
  C      0.459029   -0.487397   -0.508945
  N     -0.502523   -1.374554   -0.803967
  O     -1.681225   -0.701973   -0.739374
  C     -1.474879    0.580816   -0.407257
  C     -0.115838    0.790709   -0.254114
  H      0.389198    1.705256    0.020445
  H      3.068060    0.924424    0.047143
  C      5.503994   -0.849659   -0.166181
  C      5.991850    0.396329    0.170335
  C      7.386707    0.655215    0.350535
  C      8.327905   -0.325652    0.198624
  C      7.903456   -1.656819   -0.152614
  C      6.465466   -1.932045   -0.340365
  N      8.752526   -2.658643   -0.317281
  S      7.713536   -4.156542   -0.760340
  N      6.118165   -3.164573   -0.661615
  H      5.297394    1.221644    0.306478
  H      7.692735    1.664185    0.615438
  H     -5.495604    4.210248   -0.318245
  H      9.384971   -0.117606    0.337994

----------------------------
CARTESIAN COORDINATES (A.U.)
----------------------------
  NO LB      ZA    FRAG     MASS         X           Y           Z
   0 C     6.0000    0    12.011   -9.649164   -4.473813    2.053444
   1 C     6.0000    0    12.011   -7.878851   -2.688527    1.277343
   2 C     6.0000    0    12.011   -8.681916   -0.202956    0.769065
   3 C     6.0000    0    12.011  -11.281523    0.394925    1.114328
   4 C     6.0000    0    12.011  -13.071124   -1.403516    1.885705
   5 C     6.0000    0    12.011  -12.215208   -3.849000    2.343320
   6 C     6.0000    0    12.011   -7.441533    2.126411   -0.002939
   7 C     6.0000    0    12.011   -9.361659    4.018308   -0.031690
   8 N     7.0000    0    14.007  -11.649828    2.933837    0.606580
   9 C     6.0000    0    12.011   -8.877383    6.563250   -0.594543
  10 C     6.0000    0    12.011   -6.387102    7.235083   -1.119763
  11 C     6.0000    0    12.011   -4.460909    5.418651   -1.120241
  12 C     6.0000    0    12.011   -4.927947    2.850689   -0.607925
  13 H     1.0000    0     1.008   -2.545716    5.998908   -1.581177
  14 H     1.0000    0     1.008  -13.315289    3.865775    0.747087
  15 H     1.0000    0     1.008   -5.926817    9.188334   -1.550884
  16 H     1.0000    0     1.008   -5.910450   -3.229214    1.084284
  17 H     1.0000    0     1.008  -15.046994   -0.899362    2.127529
  18 H     1.0000    0     1.008  -13.545339   -5.292962    2.945381
  19 H     1.0000    0     1.008   -9.037325   -6.393943    2.445069
  20 C     6.0000    0    12.011    7.681809   -2.032085   -0.646781
  21 N     7.0000    0    14.007    6.722168   -4.294501   -1.264895
  22 O     8.0000    0    15.999    4.177961   -4.013964   -1.414954
  23 C     6.0000    0    12.011    3.530161   -1.614827   -0.901383
  24 C     6.0000    0    12.011    5.682898   -0.234294   -0.390584
  25 C     6.0000    0    12.011    0.867438   -0.921046   -0.961766
  26 N     7.0000    0    14.007   -0.949631   -2.597530   -1.519278
  27 O     8.0000    0    15.999   -3.177055   -1.326536   -1.397214
  28 C     6.0000    0    12.011   -2.787118    1.097583   -0.769604
  29 C     6.0000    0    12.011   -0.218903    1.494224   -0.480205
  30 H     1.0000    0     1.008    0.735478    3.222467    0.038636
  31 H     1.0000    0     1.008    5.797793    1.746908    0.089087
  32 C     6.0000    0    12.011   10.401041   -1.605622   -0.314037
  33 C     6.0000    0    12.011   11.322956    0.748954    0.321887
  34 C     6.0000    0    12.011   13.958854    1.238176    0.662415
  35 C     6.0000    0    12.011   15.737461   -0.615393    0.375345
  36 C     6.0000    0    12.011   14.935367   -3.130934   -0.288398
  37 C     6.0000    0    12.011   12.217960   -3.651036   -0.643197
  38 N     7.0000    0    14.007   16.539877   -5.024107   -0.599574
  39 S    16.0000    0    32.060   14.576471   -7.854726   -1.436835
  40 N     7.0000    0    14.007   11.561657   -5.980175   -1.250271
  41 H     1.0000    0     1.008   10.010623    2.308573    0.579159
  42 H     1.0000    0     1.008   14.537163    3.144853    1.163010
  43 H     1.0000    0     1.008  -10.385186    7.956215   -0.601397
  44 H     1.0000    0     1.008   17.735024   -0.222242    0.638716

--------------------------------
INTERNAL COORDINATES (ANGSTROEM)
--------------------------------
 C      0   0   0     0.000000000000     0.00000000     0.00000000
 C      1   0   0     1.392408640294     0.00000000     0.00000000
 C      2   1   0     1.408180383234   119.14615894     0.00000000
 C      3   2   1     1.423341597767   118.34477631     1.06473472
 C      4   3   2     1.403276306178   122.60454577   358.61265703
 C      5   4   3     1.392288808152   117.47844877     0.66365076
 C      3   2   1     1.455044173284   135.13526233   178.49675921
 C      7   3   2     1.426521323825   106.03475671   183.48169340
 N      8   7   3     1.381870729866   109.27284502   358.42584928
 C      8   7   3     1.402874306613   123.08421568   177.46520762
 C     10   8   7     1.392924227328   117.40009354   359.35604599
 C     11  10   8     1.401035624740   120.87866980     0.97928326
 C     12  11  10     1.407554105241   122.31568700     0.25659185
 H     12  11  10     1.086699145013   118.99235450   178.57383813
 H      9   8   7     1.012653691860   125.33108737   179.19855364
 H     11  10   8     1.086156891924   119.79861977   180.46813501
 H      2   1   3     1.085034964520   119.65275190   179.67825619
 H      5   4   3     1.086646111347   121.13856978   180.26777417
 H      6   5   4     1.086651364858   119.59458073   179.94139821
 H      1   2   3     1.086376177979   119.36316668   179.92302470
 C     14  12  11     6.899062363842   122.78420405   173.68011077
 N     21  14  12     1.340971097771   103.61539002    33.90378932
 O     22  21  14     1.356822103772   106.99935156   351.33793628
 C     23  22  21     1.342823817110   110.17629330     0.00000000
 C     24  23  22     1.380032893372   109.23246642     0.00000000
 C     24  23  22     1.456446508413   118.74151333   180.04155741
 N     26  24  23     1.341143976087   122.12132521   359.81640587
 O     27  26  24     1.358630209707   106.50430878   179.84841742
 C     28  27  26     1.341054331131   110.59857843   359.81178897
 C     29  28  27     1.383654866101   108.88351984     0.59328155
 H     30  29  28     1.080203866397   128.00893467   180.72337662
 H     25  24  23     1.080409037109   127.31229109   180.00587800
 C     21  14  12     1.467149268251   133.09846555   203.89559460
 C     33  21  14     1.379758428950   120.99495446    11.53856231
 C     34  33  21     1.430076884644   122.62124319   179.99920938
 C     35  34  33     1.367856073771   121.82523295     0.00000000
 C     36  35  34     1.440670299200   119.13912646     0.00000000
 C     33  21  14     1.458193413509   121.20995241   191.53586174
 N     37  36  35     1.323513193932   122.73370087   180.00286642
 S     39  37  36     1.876033816716   106.16855550   179.99826231
 N     38  33  21     1.320205767698   123.27065691     0.00000000
 H     34  33  21     1.087174539596   119.35517172     0.00000000
 H     35  34  33     1.087128193933   118.24786658   179.99946905
 H     10   8   7     1.086279585201   121.19484918   179.94438478
 H     36  35  34     1.086321263449   121.19629869   180.00017585

---------------------------
INTERNAL COORDINATES (A.U.)
---------------------------
 C      0   0   0     0.000000000000     0.00000000     0.00000000
 C      1   0   0     2.631270996662     0.00000000     0.00000000
 C      2   1   0     2.661075271472   119.14615894     0.00000000
 C      3   2   1     2.689725814798   118.34477631     1.06473472
 C      4   3   2     2.651807908896   122.60454577   358.61265703
 C      5   4   3     2.631044546731   117.47844877     0.66365076
 C      3   2   1     2.749635000265   135.13526233   178.49675921
 C      7   3   2     2.695734626227   106.03475671   183.48169340
 N      8   7   3     2.611357231929   109.27284502   358.42584928
 C      8   7   3     2.651048239813   123.08421568   177.46520762
 C     10   8   7     2.632245314955   117.40009354   359.35604599
 C     11  10   8     2.647573634626   120.87866980     0.97928326
 C     12  11  10     2.659891777582   122.31568700     0.25659185
 H     12  11  10     2.053563774041   118.99235450   178.57383813
 H      9   8   7     1.913638146119   125.33108737   179.19855364
 H     11  10   8     2.052539064208   119.79861977   180.46813501
 H      2   1   3     2.050418928671   119.65275190   179.67825619
 H      5   4   3     2.053463554937   121.13856978   180.26777417
 H      6   5   4     2.053473482634   119.59458073   179.94139821
 H      1   2   3     2.052953454796   119.36316668   179.92302470
 C     14  12  11    13.037338448504   122.78420405   173.68011077
 N     21  14  12     2.534068128291   103.61539002    33.90378932
 O     22  21  14     2.564022188580   106.99935156   351.33793628
 C     23  22  21     2.537569260444   110.17629330     0.00000000
 C     24  23  22     2.607884224275   109.23246642     0.00000000
 C     24  23  22     2.752285029607   118.74151333   180.04155741
 N     26  24  23     2.534394820963   122.12132521   359.81640587
 O     27  26  24     2.567439013617   106.50430878   179.84841742
 C     28  27  26     2.534225416546   110.59857843   359.81178897
 C     29  28  27     2.614728760799   108.88351984     0.59328155
 H     30  29  28     2.041289476294   128.00893467   180.72337662
 H     25  24  23     2.041677192750   127.31229109   180.00587800
 C     21  14  12     2.772510314577   133.09846555   203.89559460
 C     33  21  14     2.607365561685   120.99495446    11.53856231
 C     34  33  21     2.702453662428   122.62124319   179.99920938
 C     35  34  33     2.584873370048   121.82523295     0.00000000
 C     36  35  34     2.722472314761   119.13912646     0.00000000
 C     33  21  14     2.755586201819   121.20995241   191.53586174
 N     37  36  35     2.501077471163   122.73370087   180.00286642
 S     39  37  36     3.545190131568   106.16855550   179.99826231
 N     38  33  21     2.494827341372   123.27065691     0.00000000
 H     34  33  21     2.054462139608   119.35517172     0.00000000
 H     35  34  33     2.054374558998   118.24786658   179.99946905
 H     10   8   7     2.052770920899   121.19484918   179.94438478
 H     36  35  34     2.052849681374   121.19629869   180.00017585

---------------------
BASIS SET INFORMATION
---------------------
There are 5 groups of distinct atoms

 Group   1 Type C   : 11s6p2d1f contracted to 5s3p2d1f pattern {62111/411/11/1}
 Group   2 Type N   : 11s6p2d1f contracted to 5s3p2d1f pattern {62111/411/11/1}
 Group   3 Type H   : 5s1p contracted to 3s1p pattern {311/1}
 Group   4 Type O   : 11s6p2d1f contracted to 5s3p2d1f pattern {62111/411/11/1}
 Group   5 Type S   : 14s9p3d1f contracted to 5s5p2d1f pattern {73211/51111/21/1}

Atom   0C    basis set group =>   1
Atom   1C    basis set group =>   1
Atom   2C    basis set group =>   1
Atom   3C    basis set group =>   1
Atom   4C    basis set group =>   1
Atom   5C    basis set group =>   1
Atom   6C    basis set group =>   1
Atom   7C    basis set group =>   1
Atom   8N    basis set group =>   2
Atom   9C    basis set group =>   1
Atom  10C    basis set group =>   1
Atom  11C    basis set group =>   1
Atom  12C    basis set group =>   1
Atom  13H    basis set group =>   3
Atom  14H    basis set group =>   3
Atom  15H    basis set group =>   3
Atom  16H    basis set group =>   3
Atom  17H    basis set group =>   3
Atom  18H    basis set group =>   3
Atom  19H    basis set group =>   3
Atom  20C    basis set group =>   1
Atom  21N    basis set group =>   2
Atom  22O    basis set group =>   4
Atom  23C    basis set group =>   1
Atom  24C    basis set group =>   1
Atom  25C    basis set group =>   1
Atom  26N    basis set group =>   2
Atom  27O    basis set group =>   4
Atom  28C    basis set group =>   1
Atom  29C    basis set group =>   1
Atom  30H    basis set group =>   3
Atom  31H    basis set group =>   3
Atom  32C    basis set group =>   1
Atom  33C    basis set group =>   1
Atom  34C    basis set group =>   1
Atom  35C    basis set group =>   1
Atom  36C    basis set group =>   1
Atom  37C    basis set group =>   1
Atom  38N    basis set group =>   2
Atom  39S    basis set group =>   5
Atom  40N    basis set group =>   2
Atom  41H    basis set group =>   3
Atom  42H    basis set group =>   3
Atom  43H    basis set group =>   3
Atom  44H    basis set group =>   3
-------------------------------
AUXILIARY BASIS SET INFORMATION
-------------------------------
There are 5 groups of distinct atoms

 Group   1 Type C   : 12s5p4d2f1g contracted to 6s4p3d1f1g pattern {711111/2111/211/2/1}
 Group   2 Type N   : 12s5p4d2f1g contracted to 6s4p3d1f1g pattern {711111/2111/211/2/1}
 Group   3 Type H   : 5s2p1d contracted to 3s1p1d pattern {311/2/1}
 Group   4 Type O   : 12s5p4d2f1g contracted to 6s4p3d1f1g pattern {711111/2111/211/2/1}
 Group   5 Type S   : 14s5p5d2f1g contracted to 8s4p3d1f1g pattern {71111111/2111/311/2/1}

Atom   0C    basis set group =>   1
Atom   1C    basis set group =>   1
Atom   2C    basis set group =>   1
Atom   3C    basis set group =>   1
Atom   4C    basis set group =>   1
Atom   5C    basis set group =>   1
Atom   6C    basis set group =>   1
Atom   7C    basis set group =>   1
Atom   8N    basis set group =>   2
Atom   9C    basis set group =>   1
Atom  10C    basis set group =>   1
Atom  11C    basis set group =>   1
Atom  12C    basis set group =>   1
Atom  13H    basis set group =>   3
Atom  14H    basis set group =>   3
Atom  15H    basis set group =>   3
Atom  16H    basis set group =>   3
Atom  17H    basis set group =>   3
Atom  18H    basis set group =>   3
Atom  19H    basis set group =>   3
Atom  20C    basis set group =>   1
Atom  21N    basis set group =>   2
Atom  22O    basis set group =>   4
Atom  23C    basis set group =>   1
Atom  24C    basis set group =>   1
Atom  25C    basis set group =>   1
Atom  26N    basis set group =>   2
Atom  27O    basis set group =>   4
Atom  28C    basis set group =>   1
Atom  29C    basis set group =>   1
Atom  30H    basis set group =>   3
Atom  31H    basis set group =>   3
Atom  32C    basis set group =>   1
Atom  33C    basis set group =>   1
Atom  34C    basis set group =>   1
Atom  35C    basis set group =>   1
Atom  36C    basis set group =>   1
Atom  37C    basis set group =>   1
Atom  38N    basis set group =>   2
Atom  39S    basis set group =>   5
Atom  40N    basis set group =>   2
Atom  41H    basis set group =>   3
Atom  42H    basis set group =>   3
Atom  43H    basis set group =>   3
Atom  44H    basis set group =>   3
-------------------------
ECP PARAMETER INFORMATION
-------------------------



--------------------------------------------------------------------------
[[43642,1],2]: A high-performance Open MPI point-to-point messaging module
was unable to find any relevant network interfaces:

Module: OpenFabrics (openib)
  Host: cx1-108-10-3

Another transport will be used instead, although this may result in
lower performance.
--------------------------------------------------------------------------


           ************************************************************
           *        Program running with 24 parallel MPI-processes    *
           *              working on a common directory               *
           ************************************************************
------------------------------------------------------------------------------
                           ORCA GTO INTEGRAL CALCULATION
                           -- RI-GTO INTEGRALS CHOSEN --
------------------------------------------------------------------------------

                         BASIS SET STATISTICS AND STARTUP INFO

Gaussian basis set:
 # of primitive gaussian shells          ...  725
 # of primitive gaussian functions       ... 1593
 # of contracted shells                  ...  406
 # of contracted basis functions         ... 1076
 Highest angular momentum                ...    3
 Maximum contraction depth               ...    7
Auxiliary gaussian basis set:
 # of primitive gaussian shells          ...  875
 # of primitive gaussian functions       ... 2455
 # of contracted shells                  ...  547
 # of contracted aux-basis functions     ... 1713
 Highest angular momentum                ...    4
 Maximum contraction depth               ...    7
Ratio of auxiliary to basis functions    ...  1.59
Integral package used                  ... LIBINT
 One Electron integrals                  
   ECP integrals                         ... done
 Ordering auxiliary basis shells         ... done
 Integral threshhold             Thresh  ...  2.500e-11
 Primitive cut-off               TCut    ...  2.500e-12
 Pre-screening matrix                    ... done
 Shell pair data                         ... 
 Ordering of the shell pairs             ... done (   0.013 sec) 42782 of 82621 pairs
 Determination of significant pairs      ... done (   0.000 sec)
 Creation of shell pair data             ... done (   0.012 sec)
 Storage of shell pair data              ... done (   0.109 sec)
 Shell pair data done in (   0.134 sec)
 Computing two index integrals           ... done
 Cholesky decomposition of the V-matrix  ... done


Timings:
 Total evaluation time                   ...   5.065 sec (  0.084 min)
 One electron matrix time                ...   1.453 sec (  0.024 min) = 28.7%
 Schwartz matrix evaluation time         ...   2.079 sec (  0.035 min) = 41.0%
 Two index repulsion integral time       ...   0.825 sec (  0.014 min) = 16.3%
 Cholesky decomposition of V             ...   0.532 sec (  0.009 min) = 10.5%
 Three index repulsion integral time     ...   0.000 sec (  0.000 min) =  0.0%

--------------------------------------------------------------------------
[[43943,1],5]: A high-performance Open MPI point-to-point messaging module
was unable to find any relevant network interfaces:

Module: OpenFabrics (openib)
  Host: cx1-108-10-3

Another transport will be used instead, although this may result in
lower performance.
--------------------------------------------------------------------------


           ************************************************************
           *        Program running with 24 parallel MPI-processes    *
           *              working on a common directory               *
           ************************************************************
-------------------------------------------------------------------------------
                                 ORCA SCF
-------------------------------------------------------------------------------

------------
SCF SETTINGS
------------
Hamiltonian:
 Density Functional     Method          .... DFT(GTOs)
 Exchange Functional    Exchange        .... WB97X-D3
 Correlation Functional Correlation     .... WB97X-D3
 Gradients option       PostSCFGGA      .... off
 Hybrid DFT is turned on
   Fraction HF Exchange ScalHFX         ....  0.195728
   Scaling of DF-GGA-X  ScalDFX         ....  0.000000
   Scaling of DF-GGA-C  ScalDFC         ....  1.000000
   Scaling of DF-LDA-C  ScalLDAC        ....  1.000000
   Perturbative correction              ....  0.000000
 Long-range corrected/Screened/Range-Separated Hybrid DFT is turned on
   Amount of maximum screened exact exchange              ....  0.804272
   Range separation parameter mu (erf(mu*r12)/r12)        ....  0.250000
 RI-approximation to the Coulomb term is turned on
   Number of auxiliary basis functions  .... 1713
   RIJ-COSX (HFX calculated with COS-X)).... on


General Settings:
 Integral files         IntName         .... total
 Hartree-Fock type      HFTyp           .... RHF
 Total Charge           Charge          ....    0
 Multiplicity           Mult            ....    1
 Number of Electrons    NEL             ....  224
 Basis Dimension        Dim             .... 1076
 Nuclear Repulsion      ENuc            ....   2828.8719167904 Eh

Convergence Acceleration:
 DIIS                   CNVDIIS         .... on
   Start iteration      DIISMaxIt       ....    12
   Startup error        DIISStart       ....  0.200000
   # of expansion vecs  DIISMaxEq       ....     5
   Bias factor          DIISBfac        ....   1.050
   Max. coefficient     DIISMaxC        ....  10.000
 Newton-Raphson         CNVNR           .... off
 SOSCF                  CNVSOSCF        .... on
   Start iteration      SOSCFMaxIt      ....   150
   Startup grad/error   SOSCFStart      ....  0.003300
 Level Shifting         CNVShift        .... on
   Level shift para.    LevelShift      ....    0.2500
   Turn off err/grad.   ShiftErr        ....    0.0010
 Zerner damping         CNVZerner       .... off
 Static damping         CNVDamp         .... on
   Fraction old density DampFac         ....    0.7000
   Max. Damping (<1)    DampMax         ....    0.9800
   Min. Damping (>=0)   DampMin         ....    0.0000
   Turn off err/grad.   DampErr         ....    0.1000
 Fernandez-Rico         CNVRico         .... off

SCF Procedure:
 Maximum # iterations   MaxIter         ....   125
 SCF integral mode      SCFMode         .... Direct
   Integral package                     .... LIBINT
 Reset frequeny         DirectResetFreq ....    20
 Integral Threshold     Thresh          ....  2.500e-11 Eh
 Primitive CutOff       TCut            ....  2.500e-12 Eh

Convergence Tolerance:
 Convergence Check Mode ConvCheckMode   .... Total+1el-Energy
 Convergence forced     ConvForced      .... 1
 Energy Change          TolE            ....  1.000e-08 Eh
 1-El. energy change                    ....  1.000e-05 Eh
 Orbital Gradient       TolG            ....  1.000e-05
 Orbital Rotation angle TolX            ....  1.000e-05
 DIIS Error             TolErr          ....  5.000e-07


Diagonalization of the overlap matrix:
Smallest eigenvalue                        ... 6.082e-06
Time for diagonalization                   ...    0.408 sec
Threshold for overlap eigenvalues          ... 1.000e-08
Number of eigenvalues below threshold      ... 0
Time for construction of square roots      ...    0.426 sec
Total time needed                          ...    0.842 sec

-------------------
DFT GRID GENERATION
-------------------

General Integration Accuracy     IntAcc      ...  5.010
Radial Grid Type                 RadialGrid  ... Gauss-Chebyshev
Angular Grid (max. acc.)         AngularGrid ... Lebedev-434
Angular grid pruning method      GridPruning ... 3 (G Style)
Weight generation scheme         WeightScheme... Becke
Basis function cutoff            BFCut       ...    1.0000e-11
Integration weight cutoff        WCut        ...    1.0000e-14
Grids for H and He will be reduced by one unit

# of grid points (after initial pruning)     ... 430122 (   0.0 sec)
# of grid points (after weights+screening)   ... 378196 (   1.1 sec)
nearest neighbour list constructed           ...    0.0 sec
Grid point re-assignment to atoms done       ...    0.2 sec
Grid point division into batches done        ...    4.7 sec
Reduced shell lists constructed in    5.5 sec

Total number of grid points                  ...   378196
Total number of batches                      ...     5931
Average number of points per batch           ...       63
Average number of grid points per atom       ...     8404
Average number of shells per batch           ...   131.67 (32.43%)
Average number of basis functions per batch  ...   338.76 (31.48%)
Average number of large shells per batch     ...    90.37 (68.64%)
Average number of large basis fcns per batch ...   232.53 (68.64%)
Maximum spatial batch extension              ...   7.93, 20.15, 14.31 au
Average spatial batch extension              ...   0.06,  0.07,  0.06 au

Time for grid setup =    7.231 sec

------------------------------
INITIAL GUESS: MODEL POTENTIAL
------------------------------
Loading Hartree-Fock densities                     ... done
Calculating cut-offs                               ... done
Setting up the integral package                    ... done
Initializing the effective Hamiltonian             ... done
Starting the Coulomb interaction                   ... done (   0.6 sec)
Reading the grid                                   ... done
Mapping shells                                     ... done
Starting the XC term evaluation                    ... done (   2.0 sec)
  promolecular density results
     # of electrons  =    223.993754504
     EX              =   -200.417354188
     EC              =     -7.674741961
     EX+EC           =   -208.092096149
Transforming the Hamiltonian                       ... done (   0.2 sec)
Diagonalizing the Hamiltonian                      ... done (   0.4 sec)
Back transforming the eigenvectors                 ... done (   0.1 sec)
Now organizing SCF variables                       ... done
                      ------------------
                      INITIAL GUESS DONE (  10.8 sec)
                      ------------------
--------------------
COSX GRID GENERATION
--------------------

General Integration Accuracy     IntAcc      ...  3.340
Radial Grid Type                 RadialGrid  ... Gauss-Chebyshev
Angular Grid (max. acc.)         AngularGrid ... Lebedev-50
Angular grid pruning method      GridPruning ... 3 (G Style)
Weight generation scheme         WeightScheme... Becke
Basis function cutoff            BFCut       ...    1.0000e-11
Integration weight cutoff        WCut        ...    1.0000e-14
Grids for H and He will be reduced by one unit

# of grid points (after initial pruning)     ...  22776 (   0.0 sec)
# of grid points (after weights+screening)   ...  20842 (   0.1 sec)
nearest neighbour list constructed           ...    0.0 sec
Grid point re-assignment to atoms done       ...    0.0 sec
Grid point division into batches done        ...    0.0 sec
Reduced shell lists constructed in    0.1 sec

Total number of grid points                  ...    20842
Total number of batches                      ...      347
Average number of points per batch           ...       60
Average number of grid points per atom       ...      463
Average number of shells per batch           ...   144.00 (35.47%)
Average number of basis functions per batch  ...   375.88 (34.93%)
Average number of large shells per batch     ...   100.69 (69.92%)
Average number of large basis fcns per batch ...   263.06 (69.99%)
Maximum spatial batch extension              ...   4.76,  6.53, 15.68 au
Average spatial batch extension              ...   0.11,  0.14,  0.23 au

Overlap Fitting                  UseSFitting ... on
Constructing numerical overlap ... done (      0.1 sec)
Inverting numerical overlap    ... done (      0.2 sec)
Obtaining analytic overlap     ... done (      0.0 sec)
Final contraction and storage  ... done (      0.5 sec)


General Integration Accuracy     IntAcc      ...  3.670
Radial Grid Type                 RadialGrid  ... Gauss-Chebyshev
Angular Grid (max. acc.)         AngularGrid ... Lebedev-50
Angular grid pruning method      GridPruning ... 3 (G Style)
Weight generation scheme         WeightScheme... Becke
Basis function cutoff            BFCut       ...    1.0000e-11
Integration weight cutoff        WCut        ...    1.0000e-14
Grids for H and He will be reduced by one unit

# of grid points (after initial pruning)     ...  28472 (   0.0 sec)
# of grid points (after weights+screening)   ...  25979 (   0.1 sec)
nearest neighbour list constructed           ...    0.0 sec
Grid point re-assignment to atoms done       ...    0.0 sec
Grid point division into batches done        ...    0.0 sec
Reduced shell lists constructed in    0.1 sec

Total number of grid points                  ...    25979
Total number of batches                      ...      425
Average number of points per batch           ...       61
Average number of grid points per atom       ...      577
Average number of shells per batch           ...   146.05 (35.97%)
Average number of basis functions per batch  ...   381.84 (35.49%)
Average number of large shells per batch     ...   103.74 (71.03%)
Average number of large basis fcns per batch ...   271.63 (71.14%)
Maximum spatial batch extension              ...   4.58,  6.46, 17.14 au
Average spatial batch extension              ...   0.11,  0.13,  0.23 au

Overlap Fitting                  UseSFitting ... on
Constructing numerical overlap ... done (      0.1 sec)
Inverting numerical overlap    ... done (      0.1 sec)
Obtaining analytic overlap     ... done (      0.0 sec)
Final contraction and storage  ... done (      0.5 sec)


General Integration Accuracy     IntAcc      ...  4.010
Radial Grid Type                 RadialGrid  ... Gauss-Chebyshev
Angular Grid (max. acc.)         AngularGrid ... Lebedev-110
Angular grid pruning method      GridPruning ... 3 (G Style)
Weight generation scheme         WeightScheme... Becke
Basis function cutoff            BFCut       ...    1.0000e-11
Integration weight cutoff        WCut        ...    1.0000e-14
Grids for H and He will be reduced by one unit

# of grid points (after initial pruning)     ...  55732 (   0.0 sec)
# of grid points (after weights+screening)   ...  50263 (   0.2 sec)
nearest neighbour list constructed           ...    0.0 sec
Grid point re-assignment to atoms done       ...    0.0 sec
Grid point division into batches done        ...    0.1 sec
Reduced shell lists constructed in    0.2 sec

Total number of grid points                  ...    50263
Total number of batches                      ...      805
Average number of points per batch           ...       62
Average number of grid points per atom       ...     1117
Average number of shells per batch           ...   144.20 (35.52%)
Average number of basis functions per batch  ...   376.43 (34.98%)
Average number of large shells per batch     ...   101.00 (70.04%)
Average number of large basis fcns per batch ...   263.29 (69.94%)
Maximum spatial batch extension              ...   8.75, 16.46, 17.75 au
Average spatial batch extension              ...   0.11,  0.15,  0.16 au

Overlap Fitting                  UseSFitting ... on
Constructing numerical overlap ... done (      0.2 sec)
Inverting numerical overlap    ... done (      0.2 sec)
Obtaining analytic overlap     ... done (      0.0 sec)
Final contraction and storage  ... done (      0.5 sec)

Time for X-Grid setup             =    4.760 sec
--------------
SCF ITERATIONS
--------------
ITER       Energy         Delta-E        Max-DP      RMS-DP      [F,P]     Damp
               ***  Starting incremental Fock matrix formation  ***
  0  -1744.0565346768   0.000000000000 0.07301784  0.00065187  0.1912921 0.7000
  1  -1744.3327828259  -0.276248149058 0.05011533  0.00053501  0.0903580 0.7000
                               ***Turning on DIIS***
  2  -1744.4632484250  -0.130465599104 0.08562700  0.00120038  0.0486017 0.0000
  3  -1744.6732393139  -0.209990888931 0.07989703  0.00037809  0.0655951 0.0000
  4  -1744.7146462063  -0.041406892413 0.04345403  0.00018408  0.0131622 0.0000
  5  -1744.7167534200  -0.002107213656 0.01393482  0.00007325  0.0071281 0.0000
  6  -1744.7175057944  -0.000752374419 0.00768784  0.00004281  0.0039765 0.0000
  7  -1744.7178925019  -0.000386707531 0.00433072  0.00002736  0.0028616 0.0000
  8  -1744.7181058193  -0.000213317348 0.00257018  0.00001804  0.0017165 0.0000
                      *** Initiating the SOSCF procedure ***
                           *** Shutting down DIIS ***
                      *** Re-Reading the Fockian *** 
                      *** Removing any level shift *** 
ITER      Energy       Delta-E        Grad      Rot      Max-DP    RMS-DP
  9  -1744.71820538  -0.0000995594  0.002599  0.002599  0.001637  0.000012
               *** Restarting incremental Fock matrix formation ***
 10  -1744.71825916  -0.0000537776  0.001037  0.003420  0.011942  0.000131
 11  -1744.71827101  -0.0000118538  0.000303  0.004246  0.012215  0.000130
 12  -1744.71827590  -0.0000048859  0.000215  0.000747  0.010242  0.000108
 13  -1744.71827822  -0.0000023191  0.000116  0.000238  0.003468  0.000038
 14  -1744.71827856  -0.0000003419  0.000077  0.000162  0.002221  0.000024
 15  -1744.71827867  -0.0000001109  0.000010  0.000025  0.000256  0.000002
 16  -1744.71827861   0.0000000533  0.000010  0.000010  0.000207  0.000002
                  ***Gradient check signals convergence***
              ***Rediagonalizing the Fockian in SOSCF/NRSCF***

               *****************************************************
               *                     SUCCESS                       *
               *           SCF CONVERGED AFTER  17 CYCLES          *
               *****************************************************

Old exchange energy                            =    -63.799670060 Eh
New exchange energy                            =    -63.799812744 Eh
Exchange energy change after final integration =     -0.000142684 Eh
Total energy after final integration           =  -1744.718421315 Eh
Final COS-X integration done in                =    42.040 sec

----------------
TOTAL SCF ENERGY
----------------

Total Energy       :        -1744.71842132 Eh          -47476.20189 eV

Components:
Nuclear Repulsion  :         2828.87191679 Eh           76977.51832 eV
Electronic Energy  :        -4573.59033811 Eh         -124453.72020 eV
One Electron Energy:        -8001.23608022 Eh         -217724.70265 eV
Two Electron Energy:         3427.64574211 Eh           93270.98245 eV

Virial components:
Potential Energy   :        -3481.43206239 Eh          -94734.58263 eV
Kinetic Energy     :         1736.71364108 Eh           47258.38074 eV
Virial Ratio       :            2.00460915


DFT components:
N(Alpha)           :      112.000012491372 electrons
N(Beta)            :      112.000012491372 electrons
N(Total)           :      224.000024982743 electrons
E(XC)              :     -148.223692278637 Eh       

---------------
SCF CONVERGENCE
---------------

  Last Energy change         ...   -1.6485e-08  Tolerance :   1.0000e-08
  Last MAX-Density change    ...    4.5252e-14  Tolerance :   1.0000e-07
  Last RMS-Density change    ...    1.2366e-16  Tolerance :   5.0000e-09
  Last Orbital Gradient      ...    9.3274e-07  Tolerance :   1.0000e-05
  Last Orbital Rotation      ...    3.0833e-06  Tolerance :   1.0000e-05

             **** THE GBW FILE WAS UPDATED (total.gbw) ****
             **** DENSITY FILE WAS UPDATED (total.scfp.tmp) ****
             **** ENERGY FILE WAS UPDATED (total.en.tmp) ****
----------------
ORBITAL ENERGIES
----------------

  NO   OCC          E(Eh)            E(eV) 
   0   2.0000     -89.027792     -2422.5694 
   1   2.0000     -19.342557      -526.3377 
   2   2.0000     -19.336473      -526.1722 
   3   2.0000     -14.486165      -394.1886 
   4   2.0000     -14.481043      -394.0492 
   5   2.0000     -14.480957      -394.0469 
   6   2.0000     -14.479073      -393.9956 
   7   2.0000     -14.475003      -393.8849 
   8   2.0000     -10.374134      -282.2945 
   9   2.0000     -10.373079      -282.2658 
  10   2.0000     -10.351852      -281.6882 
  11   2.0000     -10.350912      -281.6626 
  12   2.0000     -10.348844      -281.6064 
  13   2.0000     -10.341877      -281.4168 
  14   2.0000     -10.338663      -281.3293 
  15   2.0000     -10.335712      -281.2490 
  16   2.0000     -10.330957      -281.1196 
  17   2.0000     -10.323204      -280.9087 
  18   2.0000     -10.323114      -280.9062 
  19   2.0000     -10.318020      -280.7676 
  20   2.0000     -10.316246      -280.7193 
  21   2.0000     -10.308554      -280.5100 
  22   2.0000     -10.308349      -280.5044 
  23   2.0000     -10.305924      -280.4385 
  24   2.0000     -10.302020      -280.3322 
  25   2.0000     -10.299603      -280.2664 
  26   2.0000     -10.297537      -280.2102 
  27   2.0000     -10.295015      -280.1416 
  28   2.0000     -10.289466      -279.9906 
  29   2.0000     -10.288090      -279.9532 
  30   2.0000     -10.285450      -279.8813 
  31   2.0000     -10.276636      -279.6415 
  32   2.0000      -8.116503      -220.8613 
  33   2.0000      -6.072388      -165.2381 
  34   2.0000      -6.066007      -165.0644 
  35   2.0000      -6.061676      -164.9466 
  36   2.0000      -1.291881       -35.1539 
  37   2.0000      -1.284923       -34.9645 
  38   2.0000      -1.112386       -30.2696 
  39   2.0000      -1.089051       -29.6346 
  40   2.0000      -1.020415       -27.7669 
  41   2.0000      -1.007038       -27.4029 
  42   2.0000      -0.992764       -27.0145 
  43   2.0000      -0.987618       -26.8745 
  44   2.0000      -0.971115       -26.4254 
  45   2.0000      -0.968592       -26.3567 
  46   2.0000      -0.942719       -25.6527 
  47   2.0000      -0.922696       -25.1078 
  48   2.0000      -0.907046       -24.6820 
  49   2.0000      -0.884003       -24.0549 
  50   2.0000      -0.876699       -23.8562 
  51   2.0000      -0.864184       -23.5156 
  52   2.0000      -0.851280       -23.1645 
  53   2.0000      -0.845811       -23.0157 
  54   2.0000      -0.786390       -21.3988 
  55   2.0000      -0.777428       -21.1549 
  56   2.0000      -0.774221       -21.0676 
  57   2.0000      -0.757297       -20.6071 
  58   2.0000      -0.739714       -20.1286 
  59   2.0000      -0.730770       -19.8853 
  60   2.0000      -0.721467       -19.6321 
  61   2.0000      -0.718298       -19.5459 
  62   2.0000      -0.705708       -19.2033 
  63   2.0000      -0.704002       -19.1569 
  64   2.0000      -0.668531       -18.1916 
  65   2.0000      -0.664758       -18.0890 
  66   2.0000      -0.633240       -17.2313 
  67   2.0000      -0.620792       -16.8926 
  68   2.0000      -0.618468       -16.8294 
  69   2.0000      -0.611149       -16.6302 
  70   2.0000      -0.607729       -16.5372 
  71   2.0000      -0.606015       -16.4905 
  72   2.0000      -0.598764       -16.2932 
  73   2.0000      -0.593788       -16.1578 
  74   2.0000      -0.586965       -15.9721 
  75   2.0000      -0.570462       -15.5231 
  76   2.0000      -0.568388       -15.4666 
  77   2.0000      -0.562978       -15.3194 
  78   2.0000      -0.552699       -15.0397 
  79   2.0000      -0.545925       -14.8554 
  80   2.0000      -0.544512       -14.8169 
  81   2.0000      -0.535410       -14.5692 
  82   2.0000      -0.535278       -14.5657 
  83   2.0000      -0.531108       -14.4522 
  84   2.0000      -0.528100       -14.3703 
  85   2.0000      -0.513627       -13.9765 
  86   2.0000      -0.503092       -13.6898 
  87   2.0000      -0.496350       -13.5064 
  88   2.0000      -0.488354       -13.2888 
  89   2.0000      -0.484075       -13.1723 
  90   2.0000      -0.478167       -13.0116 
  91   2.0000      -0.473884       -12.8950 
  92   2.0000      -0.472555       -12.8589 
  93   2.0000      -0.468513       -12.7489 
  94   2.0000      -0.450321       -12.2539 
  95   2.0000      -0.448474       -12.2036 
  96   2.0000      -0.445028       -12.1098 
  97   2.0000      -0.440147       -11.9770 
  98   2.0000      -0.431293       -11.7361 
  99   2.0000      -0.424928       -11.5629 
 100   2.0000      -0.413205       -11.2439 
 101   2.0000      -0.403798       -10.9879 
 102   2.0000      -0.399906       -10.8820 
 103   2.0000      -0.396697       -10.7947 
 104   2.0000      -0.377264       -10.2659 
 105   2.0000      -0.376189       -10.2366 
 106   2.0000      -0.353261        -9.6127 
 107   2.0000      -0.347170        -9.4470 
 108   2.0000      -0.337989        -9.1972 
 109   2.0000      -0.321840        -8.7577 
 110   2.0000      -0.305579        -8.3152 
 111   2.0000      -0.294558        -8.0153 
 112   0.0000      -0.049977        -1.3599 
 113   0.0000      -0.004134        -0.1125 
 114   0.0000       0.018618         0.5066 
 115   0.0000       0.024774         0.6741 
 116   0.0000       0.044284         1.2050 
 117   0.0000       0.046242         1.2583 
 118   0.0000       0.072002         1.9593 
 119   0.0000       0.079116         2.1529 
 120   0.0000       0.083977         2.2851 
 121   0.0000       0.091401         2.4871 
 122   0.0000       0.104605         2.8465 
 123   0.0000       0.106874         2.9082 
 124   0.0000       0.113079         3.0770 
 125   0.0000       0.123048         3.3483 
 126   0.0000       0.131323         3.5735 
 127   0.0000       0.134115         3.6495 
 128   0.0000       0.139872         3.8061 
 129   0.0000       0.151440         4.1209 
 130   0.0000       0.156096         4.2476 
 131   0.0000       0.159544         4.3414 
 132   0.0000       0.165209         4.4956 
 133   0.0000       0.171116         4.6563 
 134   0.0000       0.172682         4.6989 
 135   0.0000       0.175686         4.7807 
 136   0.0000       0.178134         4.8473 
 137   0.0000       0.183508         4.9935 
 138   0.0000       0.190365         5.1801 
 139   0.0000       0.198023         5.3885 
 140   0.0000       0.199685         5.4337 
 141   0.0000       0.207579         5.6485 
 142   0.0000       0.209072         5.6891 
 143   0.0000       0.223268         6.0754 
 144   0.0000       0.225252         6.1294 
 145   0.0000       0.229553         6.2465 
 146   0.0000       0.232776         6.3341 
 147   0.0000       0.237256         6.4561 
 148   0.0000       0.237873         6.4728 
 149   0.0000       0.244677         6.6580 
 150   0.0000       0.252036         6.8583 
 151   0.0000       0.255352         6.9485 
 152   0.0000       0.257723         7.0130 
 153   0.0000       0.262555         7.1445 
 154   0.0000       0.265536         7.2256 
 155   0.0000       0.269529         7.3343 
 156   0.0000       0.271441         7.3863 
 157   0.0000       0.272858         7.4248 
 158   0.0000       0.278590         7.5808 
 159   0.0000       0.281664         7.6645 
 160   0.0000       0.282375         7.6838 
 161   0.0000       0.289090         7.8665 
 162   0.0000       0.291070         7.9204 
 163   0.0000       0.294671         8.0184 
 164   0.0000       0.297716         8.1013 
 165   0.0000       0.300055         8.1649 
 166   0.0000       0.301047         8.1919 
 167   0.0000       0.301936         8.2161 
 168   0.0000       0.308282         8.3888 
 169   0.0000       0.313925         8.5423 
 170   0.0000       0.318770         8.6742 
 171   0.0000       0.323295         8.7973 
 172   0.0000       0.325003         8.8438 
 173   0.0000       0.328714         8.9448 
 174   0.0000       0.332176         9.0390 
 175   0.0000       0.333435         9.0732 
 176   0.0000       0.338328         9.2064 
 177   0.0000       0.342956         9.3323 
 178   0.0000       0.350506         9.5377 
 179   0.0000       0.351261         9.5583 
 180   0.0000       0.352567         9.5938 
 181   0.0000       0.357148         9.7185 
 182   0.0000       0.360925         9.8213 
 183   0.0000       0.363597         9.8940 
 184   0.0000       0.365587         9.9481 
 185   0.0000       0.368973        10.0403 
 186   0.0000       0.372930        10.1479 
 187   0.0000       0.374901        10.2016 
 188   0.0000       0.377486        10.2719 
 189   0.0000       0.380764        10.3611 
 190   0.0000       0.382461        10.4073 
 191   0.0000       0.385772        10.4974 
 192   0.0000       0.392887        10.6910 
 193   0.0000       0.393663        10.7121 
 194   0.0000       0.395225        10.7546 
 195   0.0000       0.399448        10.8695 
 196   0.0000       0.408858        11.1256 
 197   0.0000       0.409757        11.1500 
 198   0.0000       0.418884        11.3984 
 199   0.0000       0.419840        11.4244 
 200   0.0000       0.421577        11.4717 
 201   0.0000       0.425482        11.5779 
 202   0.0000       0.427659        11.6372 
 203   0.0000       0.428757        11.6671 
 204   0.0000       0.429726        11.6934 
 205   0.0000       0.431143        11.7320 
 206   0.0000       0.436006        11.8643 
 207   0.0000       0.440370        11.9831 
 208   0.0000       0.443742        12.0748 
 209   0.0000       0.445172        12.1137 
 210   0.0000       0.449690        12.2367 
 211   0.0000       0.452154        12.3037 
 212   0.0000       0.456688        12.4271 
 213   0.0000       0.458444        12.4749 
 214   0.0000       0.463746        12.6192 
 215   0.0000       0.465101        12.6560 
 216   0.0000       0.467220        12.7137 
 217   0.0000       0.469409        12.7733 
 218   0.0000       0.475114        12.9285 
 219   0.0000       0.476429        12.9643 
 220   0.0000       0.479187        13.0393 
 221   0.0000       0.486043        13.2259 
 222   0.0000       0.487931        13.2773 
 223   0.0000       0.489830        13.3290 
 224   0.0000       0.490262        13.3407 
 225   0.0000       0.497243        13.5307 
 226   0.0000       0.497479        13.5371 
 227   0.0000       0.503413        13.6986 
 228   0.0000       0.505584        13.7576 
 229   0.0000       0.509447        13.8627 
 230   0.0000       0.510311        13.8863 
 231   0.0000       0.513929        13.9847 
 232   0.0000       0.519267        14.1300 
 233   0.0000       0.526609        14.3298 
 234   0.0000       0.528274        14.3751 
 235   0.0000       0.532019        14.4770 
 236   0.0000       0.536874        14.6091 
 237   0.0000       0.539761        14.6877 
 238   0.0000       0.543957        14.8018 
 239   0.0000       0.545091        14.8327 
 240   0.0000       0.549045        14.9403 
 241   0.0000       0.551677        15.0119 
 242   0.0000       0.551921        15.0185 
 243   0.0000       0.555868        15.1259 
 244   0.0000       0.558936        15.2094 
 245   0.0000       0.561691        15.2844 
 246   0.0000       0.565128        15.3779 
 247   0.0000       0.566726        15.4214 
 248   0.0000       0.569688        15.5020 
 249   0.0000       0.578091        15.7307 
 250   0.0000       0.581820        15.8321 
 251   0.0000       0.585162        15.9231 
 252   0.0000       0.588538        16.0149 
 253   0.0000       0.599683        16.3182 
 254   0.0000       0.605315        16.4715 
 255   0.0000       0.607297        16.5254 
 256   0.0000       0.612347        16.6628 
 257   0.0000       0.617041        16.7905 
 258   0.0000       0.622316        16.9341 
 259   0.0000       0.629212        17.1217 
 260   0.0000       0.638740        17.3810 
 261   0.0000       0.640959        17.4414 
 262   0.0000       0.642672        17.4880 
 263   0.0000       0.651659        17.7326 
 264   0.0000       0.656658        17.8686 
 265   0.0000       0.664486        18.0816 
 266   0.0000       0.667834        18.1727 
 267   0.0000       0.672884        18.3101 
 268   0.0000       0.674296        18.3485 
 269   0.0000       0.677205        18.4277 
 270   0.0000       0.680254        18.5106 
 271   0.0000       0.684353        18.6222 
 272   0.0000       0.692183        18.8353 
 273   0.0000       0.693872        18.8812 
 274   0.0000       0.694980        18.9114 
 275   0.0000       0.696373        18.9493 
 276   0.0000       0.700026        19.0487 
 277   0.0000       0.706288        19.2191 
 278   0.0000       0.711017        19.3478 
 279   0.0000       0.711620        19.3642 
 280   0.0000       0.712431        19.3862 
 281   0.0000       0.719300        19.5732 
 282   0.0000       0.723190        19.6790 
 283   0.0000       0.727907        19.8074 
 284   0.0000       0.732998        19.9459 
 285   0.0000       0.733698        19.9649 
 286   0.0000       0.742510        20.2047 
 287   0.0000       0.744030        20.2461 
 288   0.0000       0.746867        20.3233 
 289   0.0000       0.752568        20.4784 
 290   0.0000       0.754097        20.5200 
 291   0.0000       0.764649        20.8071 
 292   0.0000       0.764986        20.8163 
 293   0.0000       0.768817        20.9206 
 294   0.0000       0.772590        21.0232 
 295   0.0000       0.776088        21.1184 
 296   0.0000       0.782284        21.2870 
 297   0.0000       0.784855        21.3570 
 298   0.0000       0.788037        21.4436 
 299   0.0000       0.791645        21.5417 
 300   0.0000       0.795974        21.6596 
 301   0.0000       0.797223        21.6935 
 302   0.0000       0.800931        21.7944 
 303   0.0000       0.802059        21.8251 
 304   0.0000       0.811528        22.0828 
 305   0.0000       0.818385        22.2694 
 306   0.0000       0.819995        22.3132 
 307   0.0000       0.825310        22.4578 
 308   0.0000       0.830021        22.5860 
 309   0.0000       0.832197        22.6452 
 310   0.0000       0.835712        22.7409 
 311   0.0000       0.841033        22.8857 
 312   0.0000       0.844021        22.9670 
 313   0.0000       0.848318        23.0839 
 314   0.0000       0.852350        23.1936 
 315   0.0000       0.857046        23.3214 
 316   0.0000       0.862137        23.4599 
 317   0.0000       0.865443        23.5499 
 318   0.0000       0.871519        23.7152 
 319   0.0000       0.875416        23.8213 
 320   0.0000       0.879226        23.9250 
 321   0.0000       0.882890        24.0247 
 322   0.0000       0.892075        24.2746 
 323   0.0000       0.900693        24.5091 
 324   0.0000       0.906589        24.6695 
 325   0.0000       0.909455        24.7475 
 326   0.0000       0.913041        24.8451 
 327   0.0000       0.919680        25.0258 
 328   0.0000       0.921190        25.0669 
 329   0.0000       0.927421        25.2364 
 330   0.0000       0.933711        25.4076 
 331   0.0000       0.941844        25.6289 
 332   0.0000       0.946854        25.7652 
 333   0.0000       0.950904        25.8754 
 334   0.0000       0.952055        25.9067 
 335   0.0000       0.957468        26.0540 
 336   0.0000       0.960009        26.1232 
 337   0.0000       0.963355        26.2142 
 338   0.0000       0.966003        26.2863 
 339   0.0000       0.968223        26.3467 
 340   0.0000       0.986407        26.8415 
 341   0.0000       0.989748        26.9324 
 342   0.0000       0.994801        27.0699 
 343   0.0000       0.997860        27.1531 
 344   0.0000       0.998688        27.1757 
 345   0.0000       1.013550        27.5801 
 346   0.0000       1.015897        27.6440 
 347   0.0000       1.020378        27.7659 
 348   0.0000       1.027855        27.9694 
 349   0.0000       1.041424        28.3386 
 350   0.0000       1.051034        28.6001 
 351   0.0000       1.057159        28.7668 
 352   0.0000       1.064837        28.9757 
 353   0.0000       1.070947        29.1419 
 354   0.0000       1.075294        29.2602 
 355   0.0000       1.080094        29.3908 
 356   0.0000       1.084899        29.5216 
 357   0.0000       1.089123        29.6365 
 358   0.0000       1.100385        29.9430 
 359   0.0000       1.105782        30.0899 
 360   0.0000       1.108684        30.1688 
 361   0.0000       1.113601        30.3026 
 362   0.0000       1.122599        30.5475 
 363   0.0000       1.130147        30.7529 
 364   0.0000       1.136387        30.9227 
 365   0.0000       1.139556        31.0089 
 366   0.0000       1.144844        31.1528 
 367   0.0000       1.153754        31.3952 
 368   0.0000       1.159548        31.5529 
 369   0.0000       1.164656        31.6919 
 370   0.0000       1.171499        31.8781 
 371   0.0000       1.174910        31.9709 
 372   0.0000       1.181189        32.1418 
 373   0.0000       1.186858        32.2960 
 374   0.0000       1.195010        32.5179 
 375   0.0000       1.205060        32.7913 
 376   0.0000       1.207566        32.8595 
 377   0.0000       1.218777        33.1646 
 378   0.0000       1.221744        33.2453 
 379   0.0000       1.224060        33.3084 
 380   0.0000       1.226931        33.3865 
 381   0.0000       1.238525        33.7020 
 382   0.0000       1.240899        33.7666 
 383   0.0000       1.245840        33.9010 
 384   0.0000       1.248933        33.9852 
 385   0.0000       1.267515        34.4908 
 386   0.0000       1.270279        34.5660 
 387   0.0000       1.277898        34.7734 
 388   0.0000       1.284196        34.9448 
 389   0.0000       1.287835        35.0438 
 390   0.0000       1.292821        35.1795 
 391   0.0000       1.300517        35.3889 
 392   0.0000       1.306473        35.5509 
 393   0.0000       1.314858        35.7791 
 394   0.0000       1.320790        35.9405 
 395   0.0000       1.327116        36.1126 
 396   0.0000       1.330235        36.1975 
 397   0.0000       1.332035        36.2465 
 398   0.0000       1.340504        36.4770 
 399   0.0000       1.343935        36.5703 
 400   0.0000       1.349466        36.7208 
 401   0.0000       1.351669        36.7808 
 402   0.0000       1.357864        36.9494 
 403   0.0000       1.364584        37.1322 
 404   0.0000       1.372832        37.3566 
 405   0.0000       1.379182        37.5294 
 406   0.0000       1.380754        37.5722 
 407   0.0000       1.394433        37.9444 
 408   0.0000       1.399561        38.0840 
 409   0.0000       1.402032        38.1512 
 410   0.0000       1.405106        38.2349 
 411   0.0000       1.407052        38.2878 
 412   0.0000       1.412640        38.4399 
 413   0.0000       1.418736        38.6058 
 414   0.0000       1.425699        38.7952 
 415   0.0000       1.432299        38.9748 
 416   0.0000       1.436844        39.0985 
 417   0.0000       1.445742        39.3407 
 418   0.0000       1.446835        39.3704 
 419   0.0000       1.455689        39.6113 
 420   0.0000       1.457517        39.6611 
 421   0.0000       1.467557        39.9342 
 422   0.0000       1.475331        40.1458 
 423   0.0000       1.479048        40.2470 
 424   0.0000       1.488768        40.5114 
 425   0.0000       1.492860        40.6228 
 426   0.0000       1.503658        40.9166 
 427   0.0000       1.505884        40.9772 
 428   0.0000       1.509570        41.0775 
 429   0.0000       1.515335        41.2344 
 430   0.0000       1.522273        41.4231 
 431   0.0000       1.528186        41.5841 
 432   0.0000       1.532919        41.7128 
 433   0.0000       1.536331        41.8057 
 434   0.0000       1.543539        42.0018 
 435   0.0000       1.550588        42.1936 
 436   0.0000       1.552717        42.2516 
 437   0.0000       1.553846        42.2823 
 438   0.0000       1.558885        42.4194 
 439   0.0000       1.563466        42.5441 
 440   0.0000       1.566671        42.6313 
 441   0.0000       1.567741        42.6604 
 442   0.0000       1.570940        42.7475 
 443   0.0000       1.575039        42.8590 
 444   0.0000       1.579312        42.9753 
 445   0.0000       1.582267        43.0557 
 446   0.0000       1.588647        43.2293 
 447   0.0000       1.591926        43.3185 
 448   0.0000       1.601065        43.5672 
 449   0.0000       1.604357        43.6568 
 450   0.0000       1.607031        43.7295 
 451   0.0000       1.609608        43.7997 
 452   0.0000       1.614469        43.9319 
 453   0.0000       1.623542        44.1788 
 454   0.0000       1.626180        44.2506 
 455   0.0000       1.634250        44.4702 
 456   0.0000       1.636176        44.5226 
 457   0.0000       1.641217        44.6598 
 458   0.0000       1.650047        44.9001 
 459   0.0000       1.654280        45.0153 
 460   0.0000       1.655727        45.0546 
 461   0.0000       1.664037        45.2807 
 462   0.0000       1.666129        45.3377 
 463   0.0000       1.677341        45.6428 
 464   0.0000       1.686723        45.8981 
 465   0.0000       1.691795        46.0361 
 466   0.0000       1.693430        46.0806 
 467   0.0000       1.697643        46.1952 
 468   0.0000       1.703644        46.3585 
 469   0.0000       1.709330        46.5132 
 470   0.0000       1.710828        46.5540 
 471   0.0000       1.713535        46.6277 
 472   0.0000       1.717260        46.7290 
 473   0.0000       1.735163        47.2162 
 474   0.0000       1.739258        47.3276 
 475   0.0000       1.740514        47.3618 
 476   0.0000       1.747986        47.5651 
 477   0.0000       1.750700        47.6390 
 478   0.0000       1.756188        47.7883 
 479   0.0000       1.760055        47.8935 
 480   0.0000       1.763392        47.9843 
 481   0.0000       1.770836        48.1869 
 482   0.0000       1.772098        48.2212 
 483   0.0000       1.783494        48.5314 
 484   0.0000       1.790024        48.7090 
 485   0.0000       1.793401        48.8009 
 486   0.0000       1.801354        49.0173 
 487   0.0000       1.802442        49.0469 
 488   0.0000       1.806941        49.1694 
 489   0.0000       1.809834        49.2481 
 490   0.0000       1.812787        49.3284 
 491   0.0000       1.822078        49.5813 
 492   0.0000       1.828699        49.7614 
 493   0.0000       1.832914        49.8761 
 494   0.0000       1.838915        50.0394 
 495   0.0000       1.844438        50.1897 
 496   0.0000       1.850193        50.3463 
 497   0.0000       1.855830        50.4997 
 498   0.0000       1.867075        50.8057 
 499   0.0000       1.869190        50.8632 
 500   0.0000       1.876927        51.0738 
 501   0.0000       1.889936        51.4278 
 502   0.0000       1.900121        51.7049 
 503   0.0000       1.904945        51.8362 
 504   0.0000       1.911341        52.0102 
 505   0.0000       1.921348        52.2825 
 506   0.0000       1.931730        52.5651 
 507   0.0000       1.945353        52.9357 
 508   0.0000       1.948960        53.0339 
 509   0.0000       1.952461        53.1292 
 510   0.0000       1.956882        53.2495 
 511   0.0000       1.966807        53.5195 
 512   0.0000       1.969961        53.6054 
 513   0.0000       1.979124        53.8547 
 514   0.0000       1.984151        53.9915 
 515   0.0000       1.992673        54.2234 
 516   0.0000       1.996376        54.3242 
 517   0.0000       2.008050        54.6418 
 518   0.0000       2.011459        54.7346 
 519   0.0000       2.014787        54.8251 
 520   0.0000       2.018372        54.9227 
 521   0.0000       2.026218        55.1362 
 522   0.0000       2.027830        55.1801 
 523   0.0000       2.034180        55.3529 
 524   0.0000       2.042876        55.5895 
 525   0.0000       2.047136        55.7054 
 526   0.0000       2.055556        55.9345 
 527   0.0000       2.059719        56.0478 
 528   0.0000       2.064627        56.1814 
 529   0.0000       2.069986        56.3272 
 530   0.0000       2.079752        56.5929 
 531   0.0000       2.083287        56.6891 
 532   0.0000       2.089018        56.8451 
 533   0.0000       2.091683        56.9176 
 534   0.0000       2.095858        57.0312 
 535   0.0000       2.116585        57.5952 
 536   0.0000       2.120726        57.7079 
 537   0.0000       2.126811        57.8735 
 538   0.0000       2.132233        58.0210 
 539   0.0000       2.141889        58.2838 
 540   0.0000       2.144902        58.3658 
 541   0.0000       2.154035        58.6143 
 542   0.0000       2.156967        58.6940 
 543   0.0000       2.160380        58.7869 
 544   0.0000       2.170878        59.0726 
 545   0.0000       2.175451        59.1970 
 546   0.0000       2.181717        59.3675 
 547   0.0000       2.185449        59.4691 
 548   0.0000       2.186565        59.4994 
 549   0.0000       2.192197        59.6527 
 550   0.0000       2.197733        59.8034 
 551   0.0000       2.205441        60.0131 
 552   0.0000       2.212883        60.2156 
 553   0.0000       2.219697        60.4010 
 554   0.0000       2.225739        60.5654 
 555   0.0000       2.236298        60.8528 
 556   0.0000       2.243446        61.0473 
 557   0.0000       2.256576        61.4046 
 558   0.0000       2.263599        61.5957 
 559   0.0000       2.264876        61.6304 
 560   0.0000       2.271388        61.8076 
 561   0.0000       2.280656        62.0598 
 562   0.0000       2.290608        62.3306 
 563   0.0000       2.296238        62.4838 
 564   0.0000       2.305409        62.7334 
 565   0.0000       2.312625        62.9297 
 566   0.0000       2.319670        63.1214 
 567   0.0000       2.321089        63.1601 
 568   0.0000       2.324628        63.2563 
 569   0.0000       2.331113        63.4328 
 570   0.0000       2.332445        63.4690 
 571   0.0000       2.344583        63.7993 
 572   0.0000       2.348636        63.9096 
 573   0.0000       2.364755        64.3483 
 574   0.0000       2.371897        64.5426 
 575   0.0000       2.377762        64.7022 
 576   0.0000       2.390627        65.0523 
 577   0.0000       2.397370        65.2358 
 578   0.0000       2.409181        65.5571 
 579   0.0000       2.416814        65.7649 
 580   0.0000       2.422503        65.9196 
 581   0.0000       2.426166        66.0193 
 582   0.0000       2.431651        66.1686 
 583   0.0000       2.441372        66.4331 
 584   0.0000       2.445292        66.5398 
 585   0.0000       2.458540        66.9003 
 586   0.0000       2.464886        67.0730 
 587   0.0000       2.469021        67.1855 
 588   0.0000       2.475484        67.3614 
 589   0.0000       2.494241        67.8718 
 590   0.0000       2.502849        68.1060 
 591   0.0000       2.506815        68.2139 
 592   0.0000       2.518455        68.5306 
 593   0.0000       2.526801        68.7578 
 594   0.0000       2.538732        69.0824 
 595   0.0000       2.545185        69.2580 
 596   0.0000       2.546128        69.2837 
 597   0.0000       2.561354        69.6980 
 598   0.0000       2.567595        69.8678 
 599   0.0000       2.577570        70.1393 
 600   0.0000       2.589520        70.4644 
 601   0.0000       2.592488        70.5452 
 602   0.0000       2.609316        71.0031 
 603   0.0000       2.618095        71.2420 
 604   0.0000       2.623680        71.3940 
 605   0.0000       2.635756        71.7226 
 606   0.0000       2.639239        71.8174 
 607   0.0000       2.641070        71.8672 
 608   0.0000       2.651111        72.1404 
 609   0.0000       2.656969        72.2998 
 610   0.0000       2.659343        72.3644 
 611   0.0000       2.669553        72.6422 
 612   0.0000       2.672961        72.7350 
 613   0.0000       2.677276        72.8524 
 614   0.0000       2.685120        73.0658 
 615   0.0000       2.688158        73.1485 
 616   0.0000       2.693298        73.2884 
 617   0.0000       2.698022        73.4169 
 618   0.0000       2.706853        73.6572 
 619   0.0000       2.718678        73.9790 
 620   0.0000       2.725015        74.1514 
 621   0.0000       2.729360        74.2697 
 622   0.0000       2.732895        74.3659 
 623   0.0000       2.738822        74.5271 
 624   0.0000       2.741442        74.5984 
 625   0.0000       2.746213        74.7283 
 626   0.0000       2.750271        74.8387 
 627   0.0000       2.759993        75.1032 
 628   0.0000       2.765019        75.2400 
 629   0.0000       2.773488        75.4705 
 630   0.0000       2.776873        75.5626 
 631   0.0000       2.779357        75.6302 
 632   0.0000       2.779840        75.6433 
 633   0.0000       2.789696        75.9115 
 634   0.0000       2.794981        76.0553 
 635   0.0000       2.803474        76.2864 
 636   0.0000       2.805758        76.3486 
 637   0.0000       2.811391        76.5018 
 638   0.0000       2.817109        76.6574 
 639   0.0000       2.822715        76.8100 
 640   0.0000       2.835344        77.1536 
 641   0.0000       2.837110        77.2017 
 642   0.0000       2.842243        77.3414 
 643   0.0000       2.844394        77.3999 
 644   0.0000       2.849768        77.5461 
 645   0.0000       2.852173        77.6116 
 646   0.0000       2.860852        77.8477 
 647   0.0000       2.871154        78.1281 
 648   0.0000       2.874329        78.2145 
 649   0.0000       2.880084        78.3711 
 650   0.0000       2.884037        78.4786 
 651   0.0000       2.885775        78.5259 
 652   0.0000       2.887707        78.5785 
 653   0.0000       2.894660        78.7677 
 654   0.0000       2.899671        78.9041 
 655   0.0000       2.902054        78.9689 
 656   0.0000       2.907824        79.1259 
 657   0.0000       2.910083        79.1874 
 658   0.0000       2.915100        79.3239 
 659   0.0000       2.917612        79.3923 
 660   0.0000       2.922132        79.5153 
 661   0.0000       2.928649        79.6926 
 662   0.0000       2.933399        79.8218 
 663   0.0000       2.936732        79.9125 
 664   0.0000       2.941989        80.0556 
 665   0.0000       2.947174        80.1967 
 666   0.0000       2.950218        80.2795 
 667   0.0000       2.964290        80.6624 
 668   0.0000       2.969655        80.8084 
 669   0.0000       2.974594        80.9428 
 670   0.0000       2.976744        81.0013 
 671   0.0000       2.978164        81.0400 
 672   0.0000       2.983279        81.1791 
 673   0.0000       2.985073        81.2280 
 674   0.0000       2.996894        81.5496 
 675   0.0000       3.003461        81.7283 
 676   0.0000       3.006625        81.8144 
 677   0.0000       3.014314        82.0236 
 678   0.0000       3.021319        82.2143 
 679   0.0000       3.027466        82.3815 
 680   0.0000       3.030946        82.4762 
 681   0.0000       3.042887        82.8012 
 682   0.0000       3.045616        82.8754 
 683   0.0000       3.052313        83.0577 
 684   0.0000       3.056293        83.1660 
 685   0.0000       3.061229        83.3003 
 686   0.0000       3.063224        83.3546 
 687   0.0000       3.070849        83.5620 
 688   0.0000       3.074220        83.6538 
 689   0.0000       3.078968        83.7830 
 690   0.0000       3.082669        83.8837 
 691   0.0000       3.094208        84.1977 
 692   0.0000       3.098142        84.3047 
 693   0.0000       3.110655        84.6452 
 694   0.0000       3.114610        84.7528 
 695   0.0000       3.118701        84.8642 
 696   0.0000       3.123648        84.9988 
 697   0.0000       3.132963        85.2523 
 698   0.0000       3.147630        85.6514 
 699   0.0000       3.149647        85.7062 
 700   0.0000       3.155671        85.8702 
 701   0.0000       3.160023        85.9886 
 702   0.0000       3.163552        86.0846 
 703   0.0000       3.164520        86.1110 
 704   0.0000       3.173276        86.3492 
 705   0.0000       3.178794        86.4994 
 706   0.0000       3.182220        86.5926 
 707   0.0000       3.184395        86.6518 
 708   0.0000       3.188651        86.7676 
 709   0.0000       3.195556        86.9555 
 710   0.0000       3.197291        87.0027 
[...]
  95   8.154     152.0   0.018667   0.017035  52.629786  44.314674     0.10 (  63->  72)    0.07 (  47->  74)    0.06 (  60->  72)
  96   8.184     151.5   0.088655   0.080197  -58.092214  -53.443390     0.13 (  67->  78)    0.12 (  61->  80)    0.10 (  58->  72)
  97   8.215     150.9   0.014721   0.014030  -0.326585  -0.211931     0.13 (  68->  82)    0.07 (  70->  89)    0.05 (  70->  83)
  98   8.230     150.6   0.050241   0.049130  -35.869838  -36.201638     0.07 (  58->  72)    0.07 (  63->  77)    0.05 (  55->  73)
  99   8.242     150.4   0.129924   0.127426   6.599028   7.530241     0.09 (  69->  87)    0.08 (  49->  75)    0.07 (  65->  79)
 100   8.312     149.2   0.003079   0.003552   6.617932   6.989269     0.09 (  70->  91)    0.08 (  70->  92)    0.04 (  71->  91)
 101   8.324     149.0   0.025575   0.026568  17.832565  17.900610     0.10 (  63->  77)    0.06 (  52->  73)    0.06 (  64->  73)
 102   8.329     148.9   0.018388   0.017325  -10.234229  -9.887132     0.10 (  66->  73)    0.09 (  69->  87)    0.09 (  64->  73)
 103   8.336     148.7   0.026789   0.025336  -2.424427  -2.537709     0.44 (  66->  73)    0.25 (  66->  74)    0.03 (  64->  73)
 104   8.368     148.2   0.011337   0.010669  -31.692371  -31.180191     0.33 (  64->  73)    0.06 (  46->  73)    0.04 (  52->  73)
 105   8.395     147.7   0.004815   0.004538  -11.799948  -12.229439     0.19 (  62->  80)    0.11 (  69->  80)    0.09 (  67->  80)
 106   8.404     147.5   0.017015   0.015423  22.595734  19.231793     0.07 (  71->  93)    0.06 (  71->  94)    0.04 (  62->  80)
 107   8.442     146.9   0.000279   0.000254   2.247952   2.216602     0.30 (  56->  75)    0.25 (  53->  75)    0.10 (  40->  75)
 108   8.443     146.9   0.029678   0.027518  -35.256643  -33.953091     0.15 (  52->  73)    0.08 (  54->  77)    0.06 (  63->  74)
 109   8.463     146.5   0.003732   0.002696   1.452740   0.673110     0.20 (  40->  72)    0.08 (  67->  78)    0.06 (  62->  78)
 110   8.481     146.2   0.009256   0.010648  14.232170  13.960280     0.11 (  40->  72)    0.06 (  59->  75)    0.05 (  55->  73)
 111   8.490     146.0   0.032337   0.030240  -22.899079  -21.649067     0.11 (  59->  75)    0.09 (  70->  92)    0.08 (  70->  94)
 112   8.512     145.7   0.020407   0.019221  -16.921116  -17.073789     0.29 (  59->  75)    0.08 (  64->  75)    0.07 (  60->  75)
 113   8.526     145.4   0.004526   0.004707   1.389148   1.178291     0.43 (  69->  77)    0.11 (  69->  76)    0.03 (  68->  77)
 114   8.537     145.2   0.006001   0.005045  -8.503934  -7.290164     0.15 (  63->  74)    0.09 (  68->  84)    0.04 (  65->  81)
 115   8.558     144.9   0.040986   0.037084  -28.297702  -26.561042     0.10 (  71->  98)    0.05 (  63->  74)    0.05 (  67->  90)
 116   8.578     144.5   0.002257   0.002137   3.305453   3.160281     0.16 (  64->  74)    0.10 (  59->  73)    0.08 (  59->  74)
 117   8.588     144.4   0.048442   0.044546  -29.178723  -28.327903     0.18 (  71->  98)    0.07 (  67->  90)    0.06 (  71->  94)
 118   8.597     144.2   0.010456   0.009260  -8.207290  -8.295800     0.13 (  68->  76)    0.08 (  67->  77)    0.06 (  71->  78)
 119   8.633     143.6   0.074330   0.070625  -14.869282  -13.602846     0.09 (  49->  75)    0.09 (  62->  76)    0.08 (  69->  87)
 120   8.637     143.5   0.002123   0.002106   1.460558   1.598805     0.66 (  68->  75)    0.21 (  67->  75)    0.02 (  65->  75)
 121   8.668     143.0   0.346323   0.323962  34.494903  32.502670     0.13 (  65->  79)    0.10 (  65->  81)    0.08 (  50->  73)
 122   8.683     142.8   0.023963   0.022638   2.214415   1.797776     0.58 (  71->  78)    0.11 (  68->  76)    0.03 (  67->  76)
 123   8.691     142.7   0.010724   0.009921  26.280542  24.369261     0.07 (  68->  76)    0.07 (  58->  79)    0.07 (  65->  81)
 124   8.696     142.6   0.002334   0.001848  -3.909085  -3.403892     0.20 (  69->  93)    0.11 (  69->  96)    0.05 (  65->  81)
 125   8.704     142.4   0.006137   0.004777   4.551980   4.939096     0.09 (  65->  81)    0.07 (  68->  76)    0.07 (  71->  78)
 126   8.724     142.1   0.005733   0.004948  10.460468   9.158372     0.14 (  50->  73)    0.12 (  57->  79)    0.09 (  58->  79)
 127   8.752     141.7   0.018505   0.015625  16.609413  13.553736     0.10 (  70->  96)    0.05 (  71-> 100)    0.05 (  50->  73)
 128   8.784     141.2   0.026694   0.025344   5.860069   5.957122     0.08 (  70->  98)    0.06 (  71-> 102)    0.06 (  70->  96)
 129   8.800     140.9   0.042024   0.039686  15.605156  16.131168     0.05 (  71-> 102)    0.03 (  71-> 100)    0.03 (  70->  96)
 130   8.804     140.8   0.004703   0.004313  -16.179652  -13.947586     0.20 (  39->  72)    0.12 (  41->  72)    0.09 (  43->  72)
 131   8.811     140.7   0.021133   0.023608  17.674848  17.001502     0.34 (  62->  78)    0.21 (  40->  72)    0.04 (  67->  78)
 132   8.826     140.5   0.041024   0.039028  -63.262312  -62.318992     0.05 (  71-> 102)    0.03 (  62->  78)    0.03 (  71-> 100)
 133   8.863     139.9   0.003119   0.002709   2.275888   2.129849     0.30 (  66->  83)    0.19 (  66->  85)    0.09 (  66->  86)
 134   8.906     139.2   0.011052   0.009658  -5.330457  -4.825978     0.22 (  62->  73)    0.06 (  62->  74)    0.06 (  60->  77)
 135   8.914     139.1   0.002228   0.001696  -4.992438  -4.250140     0.11 (  54->  77)    0.09 (  62->  73)    0.07 (  60->  77)
 136   8.951     138.5   0.000476   0.000395   5.221471   4.875686     0.28 (  61->  74)    0.21 (  61->  73)    0.04 (  61->  78)
 137   8.957     138.4   0.006819   0.006823  -3.434420  -2.822926     0.10 (  68->  85)    0.08 (  70->  98)    0.04 (  65->  81)
 138   8.965     138.3   0.094373   0.089198  150.113560  145.233541     0.09 (  67->  85)    0.07 (  70->  94)    0.06 (  65->  82)
 139   8.978     138.1   0.225105   0.212246  -111.798546  -110.426111     0.11 (  56->  76)    0.11 (  49->  75)    0.05 (  56->  78)
 140   8.987     138.0   0.048379   0.046170  -5.527055  -4.093550     0.18 (  67->  85)    0.13 (  70->  78)    0.06 (  67->  89)
 141   9.018     137.5   0.042048   0.038403   5.337036   4.164615     0.48 (  70->  78)    0.04 (  71->  80)    0.03 (  67->  85)
 142   9.030     137.3   0.049700   0.043536  33.126493  30.775141     0.26 (  70->  78)    0.03 (  68->  87)    0.03 (  67->  87)
 143   9.058     136.9   0.001605   0.001628  -3.612033  -3.490655     0.18 (  45->  72)    0.15 (  46->  72)    0.10 (  47->  72)
 144   9.077     136.6   0.021569   0.018678   9.723096   8.521303     0.06 (  68->  85)    0.06 (  67->  80)    0.03 (  69->  99)
 145   9.087     136.4   0.003160   0.002613   1.649635   1.707115     0.05 (  67->  80)    0.04 (  70->  97)    0.03 (  68->  85)
 146   9.103     136.2   0.007008   0.006229  16.444015  15.756142     0.16 (  71->  80)    0.08 (  71-> 100)    0.05 (  70->  98)
 147   9.119     136.0   0.017258   0.015459  -30.016785  -28.768381     0.09 (  67->  87)    0.05 (  63->  79)    0.05 (  55->  77)
 148   9.137     135.7   0.011509   0.010788  11.492920  11.274116     0.29 (  71->  80)    0.05 (  69->  99)    0.03 (  62->  90)
 149   9.161     135.3   0.007725   0.007643  -2.401789  -1.782540     0.04 (  69->  97)    0.04 (  58->  79)    0.04 (  67->  80)
 150   9.169     135.2   0.003047   0.002707   3.655024   4.030097     0.27 (  71->  80)    0.05 (  67->  80)    0.03 (  51->  77)
 151   9.198     134.8   0.006327   0.005694  -1.374139  -1.067844     0.12 (  70-> 100)    0.11 (  70-> 102)    0.10 (  65->  82)
 152   9.236     134.2   0.000615   0.000491  -1.773784  -1.517803     0.10 (  54->  79)    0.07 (  54->  77)    0.06 (  60->  77)
 153   9.253     134.0   0.001668   0.001314  -8.540550  -7.216523     0.15 (  54->  79)    0.08 (  57->  72)    0.07 (  52->  77)
 154   9.264     133.8   0.005333   0.004312   5.206829   4.483301     0.21 (  53->  75)    0.11 (  62->  75)    0.04 (  57->  75)
 155   9.270     133.7   0.000974   0.000876   0.154204  -0.686661     0.14 (  54->  79)    0.13 (  57->  72)    0.07 (  52->  77)
 156   9.286     133.5   0.004640   0.004355   6.071466   5.841322     0.06 (  71->  83)    0.05 (  70-> 102)    0.05 (  53->  75)
 157   9.318     133.1   0.001088   0.000950  -2.484016  -3.528898     0.09 (  67->  87)    0.06 (  62->  74)    0.03 (  69->  81)
 158   9.326     132.9   0.028342   0.024118   9.445200   8.940596     0.11 (  69->  79)    0.09 (  67->  79)    0.08 (  67->  81)
 159   9.330     132.9   0.003328   0.002971  17.610534  17.042374     0.22 (  57->  72)    0.14 (  58->  72)    0.04 (  32->  72)
 160   9.346     132.7   0.102920   0.090238  -23.139909  -22.025729     0.13 (  53->  76)    0.10 (  53->  74)    0.04 (  49->  75)
 161   9.370     132.3   0.002283   0.002320  -8.601862  -9.337893     0.20 (  64->  83)    0.11 (  51->  77)    0.04 (  64->  82)
 162   9.376     132.2   0.003243   0.003317  11.229166  11.418166     0.15 (  64->  83)    0.14 (  51->  77)    0.04 (  57->  81)
 163   9.396     132.0   0.004241   0.004053  -3.694988  -3.471700     0.18 (  70->  80)    0.08 (  69->  79)    0.07 (  69->  81)
 164   9.408     131.8   0.005690   0.005232   8.096547   7.238115     0.17 (  70->  80)    0.05 (  63->  81)    0.05 (  65->  84)
 165   9.412     131.7   0.022049   0.020524  -11.293333  -11.249433     0.05 (  67->  79)    0.04 (  69->  81)    0.04 (  70->  80)
 166   9.429     131.5   0.009812   0.007592  -7.297213  -6.493234     0.12 (  66->  90)    0.11 (  69->  97)    0.04 (  62->  83)
 167   9.439     131.4   0.003714   0.003205  -3.787138  -3.309301     0.14 (  66->  90)    0.07 (  50->  77)    0.04 (  66->  93)
 168   9.450     131.2   0.011603   0.009728   1.644925   1.481134     0.05 (  66->  90)    0.05 (  69->  79)    0.04 (  69->  97)
 169   9.455     131.1   0.000036   0.000087   1.143311   1.130031     0.35 (  59->  78)    0.08 (  60->  78)    0.07 (  59->  73)
 170   9.465     131.0   0.000074   0.000082  -0.871343   0.018922     0.09 (  70->  80)    0.07 (  66->  90)    0.06 (  68->  86)
 171   9.477     130.8   0.093200   0.083288  -11.776010  -11.120075     0.14 (  56->  78)    0.07 (  53->  76)    0.06 (  56->  74)
 172   9.490     130.7   0.000048   0.000100  -0.385987  -0.658142     0.19 (  70->  80)    0.08 (  67->  97)    0.06 (  67->  80)
 173   9.511     130.4   0.002349   0.002240   0.011900   0.144072     0.11 (  55->  72)    0.11 (  70->  80)    0.05 (  70-> 100)
 174   9.517     130.3   0.002906   0.002698   5.987281   6.262344     0.19 (  55->  72)    0.11 (  70->  80)    0.06 (  56->  72)
 175   9.530     130.1   0.000408   0.000388  -1.296588  -0.976076     0.29 (  55->  72)    0.11 (  56->  72)    0.06 (  59->  78)
 176   9.540     130.0   0.000965   0.000890   0.382089   1.722956     0.06 (  70-> 100)    0.06 (  70-> 102)    0.05 (  71-> 105)
 177   9.563     129.6   0.003633   0.003415  -26.661649  -26.609153     0.15 (  54->  72)    0.12 (  46->  74)    0.07 (  61->  73)
 178   9.576     129.5   0.030328   0.029021  10.737439  10.140036     0.41 (  66->  87)    0.07 (  66->  86)    0.05 (  56->  78)
 179   9.600     129.2   0.001518   0.001130  -2.289898  -1.269976     0.13 (  59->  73)    0.08 (  54->  72)    0.04 (  59->  78)
 180   9.613     129.0   0.011223   0.008716  -19.756568  -19.974328     0.06 (  49->  76)    0.03 (  67->  91)    0.03 (  53->  76)
 181   9.625     128.8   0.013908   0.012338  34.421229  33.524199     0.07 (  49->  76)    0.06 (  34->  72)    0.04 (  64->  90)
 182   9.630     128.7   0.001563   0.001441  -3.678680  -2.993884     0.62 (  66->  77)    0.11 (  66->  76)    0.02 (  67->  77)
 183   9.634     128.7   0.006272   0.006888  -7.645320  -7.524824     0.12 (  66->  77)    0.10 (  54->  72)    0.04 (  71-> 101)
 184   9.646     128.5   0.012258   0.011386  -6.958569  -6.220048     0.15 (  54->  72)    0.13 (  64->  90)    0.03 (  69->  79)
 185   9.658     128.4   0.001596   0.001518  -2.017901  -2.130281     0.34 (  54->  72)    0.03 (  65->  76)    0.03 (  60->  76)
 186   9.670     128.2   0.005301   0.004886  -0.638903  -0.615350     0.72 (  65->  75)    0.06 (  64->  75)    0.03 (  63->  75)
 187   9.671     128.2   0.043662   0.039276  -40.921101  -39.273761     0.08 (  69->  79)    0.05 (  65->  75)    0.05 (  65->  76)
 188   9.679     128.1   0.006075   0.005978   2.871040   2.209640     0.07 (  65->  76)    0.04 (  60->  76)    0.04 (  65->  75)
 189   9.694     127.9   0.001252   0.001318  -2.886884  -1.559005     0.11 (  68->  88)    0.04 (  63->  79)    0.04 (  65->  88)
 190   9.707     127.7   0.149953   0.134016  -17.776075  -14.604117     0.14 (  69->  79)    0.05 (  64->  90)    0.04 (  66->  87)
 191   9.717     127.6   0.003751   0.003763  13.545793  12.834654     0.24 (  64->  87)    0.08 (  59->  76)    0.05 (  47->  76)
 192   9.725     127.5   0.028408   0.023956  52.057682  46.451318     0.06 (  62->  83)    0.05 (  69->  99)    0.04 (  67->  79)
 193   9.742     127.3   0.011849   0.010586  31.003488  29.276311     0.31 (  68->  78)    0.09 (  67->  78)    0.03 (  71->  85)
 194   9.750     127.2   0.023191   0.019699  28.199099  26.055394     0.20 (  68->  78)    0.05 (  67->  78)    0.05 (  65->  84)
 195   9.764     127.0   0.006926   0.006558  -21.009185  -20.934082     0.06 (  44->  73)    0.06 (  61->  73)    0.04 (  68->  78)
 196   9.772     126.9   0.022793   0.019670   9.874904   7.573110     0.05 (  61->  73)    0.04 (  71-> 102)    0.04 (  68->  91)
 197   9.786     126.7   0.026332   0.023704  15.586808  15.035924     0.12 (  69->  81)    0.05 (  63->  81)    0.04 (  67->  84)
 198   9.789     126.7   0.010342   0.009145  -24.321132  -22.588527     0.09 (  71-> 102)    0.07 (  68->  91)    0.05 (  71-> 101)
 199   9.799     126.5   0.015866   0.014085  -4.792110  -5.442218     0.05 (  71-> 102)    0.04 (  67->  91)    0.04 (  62->  83)
 200   9.801     126.5   0.022325   0.019660   8.263074   8.029867     0.10 (  61->  73)    0.05 (  61->  74)    0.05 (  63->  81)
 201   9.818     126.3   0.034871   0.029758  -23.561548  -21.816489     0.09 (  69->  81)    0.06 (  67->  95)    0.04 (  68->  99)
 202   9.841     126.0   0.000442   0.000301  -0.977824  -1.223826     0.05 (  67->  84)    0.05 (  67->  81)    0.04 (  71->  85)
 203   9.845     125.9   0.000152   0.000179   0.833499   0.523450     0.07 (  31->  72)    0.07 (  61->  74)    0.07 (  61->  73)
 204   9.862     125.7   0.022797   0.019478  -104.562517  -96.264930     0.09 (  48->  75)    0.06 (  49->  80)    0.03 (  67->  81)
 205   9.872     125.6   0.000791   0.000757   1.958753   1.457605     0.17 (  65->  76)    0.13 (  60->  76)    0.04 (  59->  76)
 206   9.877     125.5   0.165824   0.153788  58.891057  54.988403     0.27 (  48->  75)    0.17 (  49->  80)    0.03 (  47->  80)
 207   9.910     125.1   0.010734   0.009281  27.762521  25.368480     0.08 (  57->  74)    0.05 (  70-> 101)    0.05 (  55->  79)
 208   9.925     124.9   0.056635   0.053062  14.585073  14.116500     0.06 (  50->  77)    0.05 (  71-> 101)    0.04 (  55->  81)
 209   9.939     124.7   0.003652   0.003355  -25.592309  -23.856644     0.05 (  56->  80)    0.04 (  70-> 101)    0.03 (  69->  99)
 210   9.942     124.7   0.036939   0.035398  48.036002  46.241260     0.03 (  69->  85)    0.03 (  58->  74)    0.03 (  56->  80)
 211   9.951     124.6   0.023480   0.017312   6.603610   4.525009     0.18 (  66->  89)    0.13 (  66->  83)    0.12 (  66->  86)
 212   9.969     124.4   0.005106   0.004563   2.410275   2.756295     0.16 (  64->  77)    0.04 (  64->  76)    0.03 (  65->  85)
 213   9.988     124.1   0.011042   0.009472  -7.380938  -7.016385     0.06 (  68->  83)    0.04 (  70->  87)    0.04 (  70-> 105)

sTD-DFT done

Total run time:       32.242 sec

           *** ORCA-CIS/TD-DFT FINISHED WITHOUT ERROR ***


-------------------------------------------------------------------------------
                          DFT DISPERSION CORRECTION                            
                                                                               
                              DFTD3 V3.1  Rev 1                                
                              USING zero damping                               
-------------------------------------------------------------------------------
The omegaB97X-D3 functional is recognized. Fit by Chai et al.
Active option DFTDOPT                   ...         3   

molecular C6(AA) [au] = 32629.399381 


            DFT-D V3
 parameters
 s6 scaling factor         :     1.0000 
 rs6 scaling factor        :     1.2810 
 s8 scaling factor         :     1.0000 
 rs8 scaling factor        :     1.0940 
 Damping factor alpha6     :    14.0000 
 Damping factor alpha8     :    16.0000 
 ad hoc parameters k1-k3   :    16.0000     1.3333    -4.0000 

 Edisp/kcal,au: -12.455997742181  -0.019849893792 
 E6   /kcal   :  -5.819484930 
 E8   /kcal   :  -6.636512812 
 % E8         :  53.279656514 

-------------------------   ----------------
Dispersion correction           -0.019849894
-------------------------   ----------------


-------------------------   --------------------
FINAL SINGLE POINT ENERGY     -1744.738271219666
-------------------------   --------------------


                            ***************************************
                            *     ORCA property calculations      *
                            ***************************************

                                    ---------------------
                                    Active property flags
                                    ---------------------
   (+) Dipole Moment
   (+) Quadrupole Moment


------------------------------------------------------------------------------
                       ORCA ELECTRIC PROPERTIES CALCULATION
------------------------------------------------------------------------------

Dipole Moment Calculation                       ... on
Quadrupole Moment Calculation                   ... on
Polarizability Calculation                      ... off
GBWName                                         ... total_job2.gbw
Electron density file                           ... total_job2.scfp.tmp

-------------
DIPOLE MOMENT
-------------
                                X             Y             Z
Electronic contribution:     21.73607     -14.02409      -4.96253
Nuclear contribution   :    -22.96012      17.25283       5.74648
                        -----------------------------------------
Total Dipole Moment    :     -1.22405       3.22873       0.78396
                        -----------------------------------------
Magnitude (a.u.)       :      3.54085
Magnitude (Debye)      :      9.00012


------------------------
QUADRUPOLE MOMENT (A.U.)
------------------------

                XX           YY           ZZ           XY           XZ           YZ
  NUC     21734.99975   3325.88756    269.71363  -4228.79142  -1123.39163     61.75659
  EL     -21845.80037  -3455.13346   -415.11043   4231.54995   1122.94561    -63.84723
  TOT      -110.80063   -129.24590   -145.39680      2.75853     -0.44601     -2.09065

--------------------------------------------------------------------------
[[54562,1],4]: A high-performance Open MPI point-to-point messaging module
was unable to find any relevant network interfaces:

Module: OpenFabrics (openib)
  Host: cx1-108-10-3

Another transport will be used instead, although this may result in
lower performance.
--------------------------------------------------------------------------

Timings for individual modules:

Sum of individual times         ...      179.851 sec (=   2.998 min)
GTO integral calculation        ...        5.743 sec (=   0.096 min)   3.2 %
SCF iterations                  ...      140.476 sec (=   2.341 min)  78.1 %
CIS module                      ...       33.632 sec (=   0.561 min)  18.7 %



                             ****ORCA TERMINATED NORMALLY****
TOTAL RUN TIME: 0 days 0 hours 12 minutes 10 seconds 791 msec
