
                                 *****************
                                 * O   R   C   A *
                                 *****************

           --- An Ab Initio, DFT and Semiempirical electronic structure package ---

                  #######################################################
                  #                        -***-                        #
                  #  Department of molecular theory and spectroscopy    #
                  #              Directorship: Frank Neese              #
                  # Max Planck Institute for Chemical Energy Conversion #
                  #                  D-45470 Muelheim/Ruhr              #
                  #                       Germany                       #
                  #                                                     #
                  #                  All rights reserved                #
                  #                        -***-                        #
                  #######################################################


                         Program Version 4.0.0 -  RELEASE  -


 With contributions from (in alphabetic order):
   Daniel Aravena         : Magnetic Properties
   Michael Atanasov       : Ab Initio Ligand Field Theory
   Ute Becker             : Parallelization
   Martin Brehm           : Molecular dynamics
   Dmytro Bykov           : SCF Hessian
   Vijay G. Chilkuri      : MRCI spin determinant printing
   Dipayan Datta          : RHF DLPNO-CCSD density
   Achintya Kumar Dutta   : EOM-CC, STEOM-CC
   Dmitry Ganyushin       : Spin-Orbit,Spin-Spin,Magnetic field MRCI
   Yang Guo               : DLPNO-NEVPT2, CIM, IAO-localization
   Andreas Hansen         : Spin unrestricted coupled pair/coupled cluster methods
   Lee Huntington         : MR-EOM, pCC
   Robert Izsak           : Overlap fitted RIJCOSX, COSX-SCS-MP3, EOM
   Christian Kollmar      : KDIIS, OOCD, Brueckner-CCSD(T), CCSD density
   Simone Kossmann        : Meta GGA functionals, TD-DFT gradient, OOMP2, MP2 Hessian
   Martin Krupicka        : AUTO-CI
   Dagmar Lenk            : GEPOL surface
   Dimitrios Liakos       : Extrapolation schemes; parallel MDCI
   Dimitrios Manganas     : ROCIS; embedding schemes
   Dimitrios Pantazis     : SARC Basis sets
   Taras Petrenko         : DFT Hessian,TD-DFT gradient, ASA, ECA, R-Raman, ABS, FL, XAS/XES, NRVS
   Peter Pinski           : DLPNO-MP2
   Christoph Reimann      : Effective Core Potentials
   Marius Retegan         : Local ZFS, SOC
   Christoph Riplinger    : Optimizer, TS searches, QM/MM, DLPNO-CCSD(T), (RO)-DLPNO pert. Triples
   Tobias Risthaus        : Range-separated hybrids, TD-DFT gradient, RPA, STAB
   Michael Roemelt        : Restricted open shell CIS
   Masaaki Saitow         : Open-shell DLPNO
   Barbara Sandhoefer     : DKH picture change effects
   Kantharuban Sivalingam : CASSCF convergence, NEVPT2, FIC-MRCI
   Georgi Stoychev        : AutoAux
   Boris Wezisla          : Elementary symmetry handling
   Frank Wennmohs         : Technical directorship


 We gratefully acknowledge several colleagues who have allowed us to
 interface, adapt or use parts of their codes:
   Stefan Grimme, W. Hujo, H. Kruse,             : VdW corrections, initial TS optimization,
                  C. Bannwarth                     DFT functionals, gCP, sTDA/sTD-DF
   Ed Valeev                                     : LibInt (2-el integral package), F12 methods
   Garnet Chan, S. Sharma, J. Yang, R. Olivares  : DMRG
   Ulf Ekstrom                                   : XCFun DFT Library
   Mihaly Kallay                                 : mrcc  (arbitrary order and MRCC methods)
   Jiri Pittner, Ondrej Demel                    : Mk-CCSD
   Frank Weinhold                                : gennbo (NPA and NBO analysis)
   Christopher J. Cramer and Donald G. Truhlar   : smd solvation model


 Your calculation uses the libint2 library for the computation of 2-el integrals
 For citations please refer to: http://libint.valeyev.net

 This ORCA versions uses:
   CBLAS   interface :  Fast vector & matrix operations
   LAPACKE interface :  Fast linear algebra routines
   SCALAPACK package :  Parallel linear algebra routines


Your calculation utilizes the atom-pairwise dispersion correction
with the zero-damping scheme (D30)
Cite in your paper:
S.Grimme, J.Antony, S.Ehrlich and H.Krieg, J.Chem.Phys., 132, (2010), 154104 
   

XCFun DFT library Copyright 2009-2010 Ulf Ekstrom and contributors.
See http://admol.org/xcfun for more information. This is free soft-
ware; see the source code for copying conditions. There is ABSOLUTELY
NO WARRANTY; not even for MERCHANTABILITY or FITNESS FOR A PARTICULAR
PURPOSE. For details see the documentation. Scientific users of this 
library should cite U. Ekstrom, L. Visscher, R. Bast, A. J. Thorvald-
sen and K. Ruud; J.Chem.Theor.Comp. 2010, DOI: 10.1021/ct100117s
XCFun Version 0.99 
Your calculation utilizes the basis: def2-TZVP
   F. Weigend and R. Ahlrichs, Phys. Chem. Chem. Phys. 7, 3297 (2005).

Your calculation utilizes the auxiliary basis: def2/J
   F. Weigend, Phys. Chem. Chem. Phys. 8, 1057 (2006).

================================================================================
                                        WARNINGS
                       Please study these warnings very carefully!
================================================================================

Warning: TCutStore was < 0. Adjusted to Thresh (uncritical)
INFO   : Checking CIS options ...

WARNING: CIS/ROCIS methods need fully converged wavefunctions
  ===> : Setting SCFConvForced true
         You can overwrite this default with %scf ConvForced false 


INFO   : the flag for use of LIBINT has been found!

Your calculation utilizes the atom-pairwise dispersion correction
with the zero-damping scheme (D30)
Cite in your paper:
S.Grimme, J.Antony, S.Ehrlich and H.Krieg, J.Chem.Phys., 132, (2010), 154104 
   

XCFun DFT library Copyright 2009-2010 Ulf Ekstrom and contributors.
See http://admol.org/xcfun for more information. This is free soft-
ware; see the source code for copying conditions. There is ABSOLUTELY
NO WARRANTY; not even for MERCHANTABILITY or FITNESS FOR A PARTICULAR
PURPOSE. For details see the documentation. Scientific users of this 
library should cite U. Ekstrom, L. Visscher, R. Bast, A. J. Thorvald-
sen and K. Ruud; J.Chem.Theor.Comp. 2010, DOI: 10.1021/ct100117s
XCFun Version 0.99 
Your calculation utilizes the basis: def2-TZVP
   F. Weigend and R. Ahlrichs, Phys. Chem. Chem. Phys. 7, 3297 (2005).

Your calculation utilizes the auxiliary basis: def2/J
   F. Weigend, Phys. Chem. Chem. Phys. 8, 1057 (2006).

================================================================================
                                        WARNINGS
                       Please study these warnings very carefully!
================================================================================

INFO   : Checking CIS options ...

INFO   : the flag for use of LIBINT has been found!

================================================================================
                                       INPUT FILE
================================================================================
NAME = total.inp
|  1> # 
|  2> !wB97X-D3 def2-TZVP def2/J RIJCOSX Grid5 FinalGrid6 TightSCF
|  3> %pal 
|  4>  nprocs 24
|  5> end
|  6> %tddft
|  7>   Mode sTDDFT
|  8>   nroots 2
|  9>   Ethresh 10.0
| 10>   maxcore 5000
| 11>   triplets true
| 12> end
| 13> * xyz 0 1 
| 14> C -4.36007689 -0.06200578 -2.66368016
| 15> C -3.82733826 -0.16853329 -1.38147686
| 16> C -4.65172097 0.09506800 -0.27158292
| 17> C -6.01921441 0.41490569 -0.50445451
| 18> C -6.55761465 0.52798325 -1.79553816
| 19> C -5.70479976 0.29282477 -2.87093336
| 20> C -4.47602899 0.05792641 1.17134888
| 21> C -5.76122080 0.31363187 1.73222929
| 22> N -6.66424263 0.55229257 0.71201113
| 23> C -6.00834288 0.28915718 3.11310980
| 24> C -4.93783510 -0.01793226 3.95027611
| 25> C -3.65836144 -0.25415454 3.42892220
| 26> C -3.39100729 -0.19867903 2.04884608
| 27> H -2.83628730 -0.46165450 4.10785855
| 28> H -7.65073255 0.74427874 0.83626986
| 29> H -5.09025133 -0.06056166 5.02505868
| 30> H -2.79142851 -0.46964375 -1.25452485
| 31> H -7.60368592 0.77937366 -1.94845403
| 32> H -6.08675897 0.36972832 -3.88531559
| 33> H -3.72650634 -0.26235734 -3.52312232
| 34> S 3.06480914 -0.74787016 0.65069096
| 35> C 1.57504851 0.13102455 0.22772623
| 36> N 1.76234646 1.05601288 -0.69844982
| 37> N 3.05402082 1.14276813 -1.13433971
| 38> C 3.88717100 0.28864402 -0.55201844
| 39> C 0.30613704 -0.16071411 0.85336652
| 40> N 0.13895133 -1.09534471 1.77889348
| 41> N -1.15138148 -1.18807665 2.22629902
| 42> C -1.98750149 -0.35049817 1.63110074
| 43> S -1.18429558 0.69975293 0.44272645
| 44> C 5.30662847 0.22804428 -0.90454328
| 45> C 6.28406206 -0.57881581 -0.25917764
| 46> C 7.61623210 -0.55263987 -0.69426481
| 47> C 8.02120887 0.26003740 -1.76409843
| 48> C 7.07002318 1.06672753 -2.41098842
| 49> C 5.74759953 1.04141305 -1.98035998
| 50> O 9.32252912 0.24508547 -2.14293017
| 51> O 8.56007346 -1.34055268 -0.05958301
| 52> O 6.03218175 -1.41211083 0.80378777
| 53> H 5.01121245 1.66216073 -2.48052533
| 54> H 9.79278583 -0.37541049 -1.56408731
| 55> H 8.09794192 -1.82276683 0.64540674
| 56> H 5.10571085 -1.37147322 1.08571740
| 57> H -6.99914103 0.48902274 3.51130578
| 58> H 7.36920067 1.69993150 -3.23860257
| 59> *
| 60> $new_job
| 61> # 
| 62> !wB97X-D3 def2-TZVP def2/J RIJCOSX Grid5 FinalGrid6 TightSCF
| 63> %pal 
| 64>  nprocs 24
| 65> end
| 66> %elprop
| 67>    dipole     true
| 68>    quadrupole true
| 69> end
| 70> %tddft
| 71>   Mode sTDDFT
| 72>   nroots 2
| 73>   Ethresh 10.0
| 74>   maxcore 5000
| 75> end
| 76> * xyz 0 1 
| 77> C -4.36007689 -0.06200578 -2.66368016
| 78> C -3.82733826 -0.16853329 -1.38147686
| 79> C -4.65172097 0.09506800 -0.27158292
| 80> C -6.01921441 0.41490569 -0.50445451
| 81> C -6.55761465 0.52798325 -1.79553816
| 82> C -5.70479976 0.29282477 -2.87093336
| 83> C -4.47602899 0.05792641 1.17134888
| 84> C -5.76122080 0.31363187 1.73222929
| 85> N -6.66424263 0.55229257 0.71201113
| 86> C -6.00834288 0.28915718 3.11310980
| 87> C -4.93783510 -0.01793226 3.95027611
| 88> C -3.65836144 -0.25415454 3.42892220
| 89> C -3.39100729 -0.19867903 2.04884608
| 90> H -2.83628730 -0.46165450 4.10785855
| 91> H -7.65073255 0.74427874 0.83626986
| 92> H -5.09025133 -0.06056166 5.02505868
| 93> H -2.79142851 -0.46964375 -1.25452485
| 94> H -7.60368592 0.77937366 -1.94845403
| 95> H -6.08675897 0.36972832 -3.88531559
| 96> H -3.72650634 -0.26235734 -3.52312232
| 97> S 3.06480914 -0.74787016 0.65069096
| 98> C 1.57504851 0.13102455 0.22772623
| 99> N 1.76234646 1.05601288 -0.69844982
|100> N 3.05402082 1.14276813 -1.13433971
|101> C 3.88717100 0.28864402 -0.55201844
|102> C 0.30613704 -0.16071411 0.85336652
|103> N 0.13895133 -1.09534471 1.77889348
|104> N -1.15138148 -1.18807665 2.22629902
|105> C -1.98750149 -0.35049817 1.63110074
|106> S -1.18429558 0.69975293 0.44272645
|107> C 5.30662847 0.22804428 -0.90454328
|108> C 6.28406206 -0.57881581 -0.25917764
|109> C 7.61623210 -0.55263987 -0.69426481
|110> C 8.02120887 0.26003740 -1.76409843
|111> C 7.07002318 1.06672753 -2.41098842
|112> C 5.74759953 1.04141305 -1.98035998
|113> O 9.32252912 0.24508547 -2.14293017
|114> O 8.56007346 -1.34055268 -0.05958301
|115> O 6.03218175 -1.41211083 0.80378777
|116> H 5.01121245 1.66216073 -2.48052533
|117> H 9.79278583 -0.37541049 -1.56408731
|118> H 8.09794192 -1.82276683 0.64540674
|119> H 5.10571085 -1.37147322 1.08571740
|120> H -6.99914103 0.48902274 3.51130578
|121> H 7.36920067 1.69993150 -3.23860257
|122> *
|123> 
|124>                          ****END OF INPUT****
================================================================================


                 $$$$$$$$$$$$$$$$$$$$$$$$$$$$$$$$$$$$$$$$$$$$$$ 
                 $ THERE ARE  2 JOBS TO BE PROCESSED THIS RUN $
                 $$$$$$$$$$$$$$$$$$$$$$$$$$$$$$$$$$$$$$$$$$$$$$ 




                 $$$$$$$$$$$$$$$$  JOB NUMBER  1 $$$$$$$$$$$$$$


                       ****************************
                       * Single Point Calculation *
                       ****************************

---------------------------------
CARTESIAN COORDINATES (ANGSTROEM)
---------------------------------
  C     -4.360077   -0.062006   -2.663680
  C     -3.827338   -0.168533   -1.381477
  C     -4.651721    0.095068   -0.271583
  C     -6.019214    0.414906   -0.504455
  C     -6.557615    0.527983   -1.795538
  C     -5.704800    0.292825   -2.870933
  C     -4.476029    0.057926    1.171349
  C     -5.761221    0.313632    1.732229
  N     -6.664243    0.552293    0.712011
  C     -6.008343    0.289157    3.113110
  C     -4.937835   -0.017932    3.950276
  C     -3.658361   -0.254155    3.428922
  C     -3.391007   -0.198679    2.048846
  H     -2.836287   -0.461655    4.107859
  H     -7.650733    0.744279    0.836270
  H     -5.090251   -0.060562    5.025059
  H     -2.791429   -0.469644   -1.254525
  H     -7.603686    0.779374   -1.948454
  H     -6.086759    0.369728   -3.885316
  H     -3.726506   -0.262357   -3.523122
  S      3.064809   -0.747870    0.650691
  C      1.575049    0.131025    0.227726
  N      1.762346    1.056013   -0.698450
  N      3.054021    1.142768   -1.134340
  C      3.887171    0.288644   -0.552018
  C      0.306137   -0.160714    0.853367
  N      0.138951   -1.095345    1.778893
  N     -1.151381   -1.188077    2.226299
  C     -1.987501   -0.350498    1.631101
  S     -1.184296    0.699753    0.442726
  C      5.306628    0.228044   -0.904543
  C      6.284062   -0.578816   -0.259178
  C      7.616232   -0.552640   -0.694265
  C      8.021209    0.260037   -1.764098
  C      7.070023    1.066728   -2.410988
  C      5.747600    1.041413   -1.980360
  O      9.322529    0.245085   -2.142930
  O      8.560073   -1.340553   -0.059583
  O      6.032182   -1.412111    0.803788
  H      5.011212    1.662161   -2.480525
  H      9.792786   -0.375410   -1.564087
  H      8.097942   -1.822767    0.645407
  H      5.105711   -1.371473    1.085717
  H     -6.999141    0.489023    3.511306
  H      7.369201    1.699931   -3.238603

----------------------------
CARTESIAN COORDINATES (A.U.)
----------------------------
  NO LB      ZA    FRAG     MASS         X           Y           Z
   0 C     6.0000    0    12.011   -8.239351   -0.117174   -5.033626
   1 C     6.0000    0    12.011   -7.232621   -0.318482   -2.610613
   2 C     6.0000    0    12.011   -8.790479    0.179652   -0.513217
   3 C     6.0000    0    12.011  -11.374667    0.784058   -0.953281
   4 C     6.0000    0    12.011  -12.392096    0.997744   -3.393075
   5 C     6.0000    0    12.011  -10.780509    0.553359   -5.425278
   6 C     6.0000    0    12.011   -8.458469    0.109465    2.213529
   7 C     6.0000    0    12.011  -10.887130    0.592678    3.273439
   8 N     7.0000    0    14.007  -12.593593    1.043682    1.345506
   9 C     6.0000    0    12.011  -11.354123    0.546428    5.882925
  10 C     6.0000    0    12.011   -9.331156   -0.033887    7.464940
  11 C     6.0000    0    12.011   -6.913301   -0.480282    6.479724
  12 C     6.0000    0    12.011   -6.408075   -0.375449    3.871758
  13 H     1.0000    0     1.008   -5.359806   -0.872401    7.762728
  14 H     1.0000    0     1.008  -14.457789    1.406483    1.580321
  15 H     1.0000    0     1.008   -9.619181   -0.114445    9.495985
  16 H     1.0000    0     1.008   -5.275035   -0.887498   -2.370708
  17 H     1.0000    0     1.008  -14.368884    1.472803   -3.682045
  18 H     1.0000    0     1.008  -11.502307    0.698685   -7.342182
  19 H     1.0000    0     1.008   -7.042076   -0.495784   -6.657736
  20 S    16.0000    0    32.060    5.791650   -1.413270    1.229628
  21 C     6.0000    0    12.011    2.976410    0.247601    0.430340
  22 N     7.0000    0    14.007    3.330352    1.995575   -1.319879
  23 N     7.0000    0    14.007    5.771263    2.159519   -2.143591
  24 C     6.0000    0    12.011    7.345689    0.545458   -1.043164
  25 C     6.0000    0    12.011    0.578515   -0.303706    1.612629
  26 N     7.0000    0    14.007    0.262580   -2.069902    3.361621
  27 N     7.0000    0    14.007   -2.175796   -2.245139    4.207095
  28 C     6.0000    0    12.011   -3.755834   -0.662346    3.082334
  29 S    16.0000    0    32.060   -2.237994    1.322341    0.836632
  30 C     6.0000    0    12.011   10.028075    0.430941   -1.709339
  31 C     6.0000    0    12.011   11.875156   -1.093803   -0.489775
  32 C     6.0000    0    12.011   14.392593   -1.044338   -1.311970
  33 C     6.0000    0    12.011   15.157888    0.491399   -3.333663
  34 C     6.0000    0    12.011   13.360408    2.015823   -4.556108
  35 C     6.0000    0    12.011   10.861389    1.967985   -3.742338
  36 O     8.0000    0    15.999   17.617027    0.463144   -4.049551
  37 O     8.0000    0    15.999   16.176195   -2.533277   -0.112596
  38 O     8.0000    0    15.999   11.399171   -2.668503    1.518939
  39 H     1.0000    0     1.008    9.469819    3.141029   -4.687514
  40 H     1.0000    0     1.008   18.505683   -0.709423   -2.955697
  41 H     1.0000    0     1.008   15.302892   -3.444530    1.219642
  42 H     1.0000    0     1.008    9.648395   -2.591709    2.051709
  43 H     1.0000    0     1.008  -13.226460    0.924119    6.635406
  44 H     1.0000    0     1.008   13.925771    3.212405   -6.120072

--------------------------------
INTERNAL COORDINATES (ANGSTROEM)
--------------------------------
 C      0   0   0     0.000000000000     0.00000000     0.00000000
 C      1   0   0     1.392553001078     0.00000000     0.00000000
 C      2   1   0     1.407464760015   119.18856176     0.00000000
 C      3   2   1     1.423574245980   118.40681389     2.25867799
 C      4   3   2     1.403409542616   122.48754912   357.41367877
 C      5   4   3     1.392504069475   117.51006277     1.02150986
 C      3   2   1     1.454063048494   134.99007016   178.14431055
 C      7   3   2     1.425373672090   106.07868861   185.69123891
 N      8   7   3     1.383203690414   109.23000969   357.54878280
 C      8   7   3     1.403032186292   122.88584036   176.57330091
 C     10   8   7     1.393247379972   117.38056594   359.15881052
 C     11  10   8     1.401664621682   120.99889876     1.78775035
 C     12  11  10     1.406828301793   122.12094202   359.79314820
 H     12  11  10     1.086193671685   119.37760203   178.14841581
 H      9   8   7     1.012650622729   125.32326407   178.84455129
 H     11  10   8     1.086372655072   119.69044806   180.82624462
 H      2   1   3     1.086228950134   119.58135679   178.92253024
 H      5   4   3     1.086667153942   121.15816818   180.38732050
 H      6   5   4     1.086636232898   119.58392772   179.90894653
 H      1   2   3     1.086366980264   119.41992651   179.85755773
 S     17   2   1     6.164639213382   162.66846720   134.07095830
 C     21  17   2     1.780657689953    27.06793204   326.03204366
 N     22  21  17     1.322303296640   113.15008915   235.56496365
 N     23  22  21     1.365997482387   113.69525214     0.00000000
 C     24  23  22     1.327691710907   114.36583830   359.90863465
 C     22  21  17     1.444532290019   122.16497819    55.63031707
 N     26  22  21     1.325928193294   123.74098550   359.77064325
 N     27  26  22     1.368842463719   113.25090399   179.90070168
 C     28  27  26     1.324724640745   113.90859261     1.38535055
 S     26  22  21     1.769298784484   122.76746148   180.14593104
 C     25  24  23     1.463832504231   121.97186235   179.29527062
 C     31  25  24     1.422285638326   125.49313649   174.74877040
 C     32  31  25     1.401664382371   120.11334860   179.76256080
 C     33  32  31     1.403208645889   121.45138818     0.06420481
 C     34  33  32     1.404980370632   119.22095780     0.12214987
 C     35  34  33     1.391001792347   119.38291492   359.86539120
 O     34  33  32     1.355422974758   118.93323234   180.03182891
 O     33  32  31     1.383641606869   119.68972241   179.96227012
 O     32  31  25     1.373943137025   124.68951271   359.32748632
 H     36  35  34     1.085246050975   119.47226870   180.14505899
 H     37  34  33     0.970162700916   107.79838381     0.02591101
 H     38  33  32     0.971136753670   106.92629296   359.96648567
 H     39  32  31     0.969269859309   112.01421783   358.43671790
 H     10   8   7     1.086364236619   121.21049007   179.95465693
 H     35  34  33     1.084158484460   119.99959434   179.96349059

---------------------------
INTERNAL COORDINATES (A.U.)
---------------------------
 C      0   0   0     0.000000000000     0.00000000     0.00000000
 C      1   0   0     2.631543799008     0.00000000     0.00000000
 C      2   1   0     2.659722939574   119.18856176     0.00000000
 C      3   2   1     2.690165456205   118.40681389     2.25867799
 C      4   3   2     2.652059689275   122.48754912   357.41367877
 C      5   4   3     2.631451331679   117.51006277     1.02150986
 C      3   2   1     2.747780943108   134.99007016   178.14431055
 C      7   3   2     2.693565878751   106.07868861   185.69123891
 N      8   7   3     2.613876162312   109.23000969   357.54878280
 C      8   7   3     2.651346589169   122.88584036   176.57330091
 C     10   8   7     2.632855984951   117.38056594   359.15881052
 C     11  10   8     2.648762266585   120.99889876     1.78775035
 C     12  11  10     2.658520207839   122.12094202   359.79314820
 H     12  11  10     2.052608567883   119.37760203   178.14841581
 H      9   8   7     1.913632346303   125.32326407   178.84455129
 H     11  10   8     2.052946797466   119.69044806   180.82624462
 H      2   1   3     2.052675234490   119.58135679   178.92253024
 H      5   4   3     2.053503319679   121.15816818   180.38732050
 H      6   5   4     2.053444887373   119.58392772   179.90894653
 H      1   2   3     2.052936073633   119.41992651   179.85755773
 S     17   2   1    11.649479827725   162.66846720   134.07095830
 C     21  17   2     3.364955372272    27.06793204   326.03204366
 N     22  21  17     2.498791096630   113.15008915   235.56496365
 N     23  22  21     2.581361141338   113.69525214     0.00000000
 C     24  23  22     2.508973723892   114.36583830   359.90863465
 C     22  21  17     2.729770419742   122.16497819    55.63031707
 N     26  22  21     2.505641158570   123.74098550   359.77064325
 N     27  26  22     2.586737376912   113.25090399   179.90070168
 C     28  27  26     2.503366773865   113.90859261     1.38535055
 S     26  22  21     3.343490151754   122.76746148   180.14593104
 C     25  24  23     2.766242538929   121.97186235   179.29527062
 C     31  25  24     2.687730340645   125.49313649   174.74877040
 C     32  31  25     2.648761814353   120.11334860   179.76256080
 C     33  32  31     2.651680049480   121.45138818     0.06420481
 C     34  33  32     2.655028124030   119.22095780     0.12214987
 C     35  34  33     2.628612439330   119.38291492   359.86539120
 O     34  33  32     2.561378217918   118.93323234   180.03182891
 O     33  32  31     2.614703704482   119.68972241   179.96227012
 O     32  31  25     2.596376252558   124.68951271   359.32748632
 H     36  35  34     2.050817824262   119.47226870   180.14505899
 H     37  34  33     1.833341810077   107.79838381     0.02591101
 H     38  33  32     1.835182503021   106.92629296   359.96648567
 H     39  32  31     1.831654583959   112.01421783   358.43671790
 H     10   8   7     2.052930888897   121.21049007   179.95465693
 H     35  34  33     2.048762621397   119.99959434   179.96349059

---------------------
BASIS SET INFORMATION
---------------------
There are 5 groups of distinct atoms

 Group   1 Type C   : 11s6p2d1f contracted to 5s3p2d1f pattern {62111/411/11/1}
 Group   2 Type N   : 11s6p2d1f contracted to 5s3p2d1f pattern {62111/411/11/1}
 Group   3 Type H   : 5s1p contracted to 3s1p pattern {311/1}
 Group   4 Type S   : 14s9p3d1f contracted to 5s5p2d1f pattern {73211/51111/21/1}
 Group   5 Type O   : 11s6p2d1f contracted to 5s3p2d1f pattern {62111/411/11/1}

Atom   0C    basis set group =>   1
Atom   1C    basis set group =>   1
Atom   2C    basis set group =>   1
Atom   3C    basis set group =>   1
Atom   4C    basis set group =>   1
Atom   5C    basis set group =>   1
Atom   6C    basis set group =>   1
Atom   7C    basis set group =>   1
Atom   8N    basis set group =>   2
Atom   9C    basis set group =>   1
Atom  10C    basis set group =>   1
Atom  11C    basis set group =>   1
Atom  12C    basis set group =>   1
Atom  13H    basis set group =>   3
Atom  14H    basis set group =>   3
Atom  15H    basis set group =>   3
Atom  16H    basis set group =>   3
Atom  17H    basis set group =>   3
Atom  18H    basis set group =>   3
Atom  19H    basis set group =>   3
Atom  20S    basis set group =>   4
Atom  21C    basis set group =>   1
Atom  22N    basis set group =>   2
Atom  23N    basis set group =>   2
Atom  24C    basis set group =>   1
Atom  25C    basis set group =>   1
Atom  26N    basis set group =>   2
Atom  27N    basis set group =>   2
Atom  28C    basis set group =>   1
Atom  29S    basis set group =>   4
Atom  30C    basis set group =>   1
Atom  31C    basis set group =>   1
Atom  32C    basis set group =>   1
Atom  33C    basis set group =>   1
Atom  34C    basis set group =>   1
Atom  35C    basis set group =>   1
Atom  36O    basis set group =>   5
Atom  37O    basis set group =>   5
Atom  38O    basis set group =>   5
Atom  39H    basis set group =>   3
Atom  40H    basis set group =>   3
Atom  41H    basis set group =>   3
Atom  42H    basis set group =>   3
Atom  43H    basis set group =>   3
Atom  44H    basis set group =>   3
-------------------------------
AUXILIARY BASIS SET INFORMATION
-------------------------------
There are 5 groups of distinct atoms

 Group   1 Type C   : 12s5p4d2f1g contracted to 6s4p3d1f1g pattern {711111/2111/211/2/1}
 Group   2 Type N   : 12s5p4d2f1g contracted to 6s4p3d1f1g pattern {711111/2111/211/2/1}
 Group   3 Type H   : 5s2p1d contracted to 3s1p1d pattern {311/2/1}
 Group   4 Type S   : 14s5p5d2f1g contracted to 8s4p3d1f1g pattern {71111111/2111/311/2/1}
 Group   5 Type O   : 12s5p4d2f1g contracted to 6s4p3d1f1g pattern {711111/2111/211/2/1}

Atom   0C    basis set group =>   1
Atom   1C    basis set group =>   1
Atom   2C    basis set group =>   1
Atom   3C    basis set group =>   1
Atom   4C    basis set group =>   1
Atom   5C    basis set group =>   1
Atom   6C    basis set group =>   1
Atom   7C    basis set group =>   1
Atom   8N    basis set group =>   2
Atom   9C    basis set group =>   1
Atom  10C    basis set group =>   1
Atom  11C    basis set group =>   1
Atom  12C    basis set group =>   1
Atom  13H    basis set group =>   3
Atom  14H    basis set group =>   3
Atom  15H    basis set group =>   3
Atom  16H    basis set group =>   3
Atom  17H    basis set group =>   3
Atom  18H    basis set group =>   3
Atom  19H    basis set group =>   3
Atom  20S    basis set group =>   4
Atom  21C    basis set group =>   1
Atom  22N    basis set group =>   2
Atom  23N    basis set group =>   2
Atom  24C    basis set group =>   1
Atom  25C    basis set group =>   1
Atom  26N    basis set group =>   2
Atom  27N    basis set group =>   2
Atom  28C    basis set group =>   1
Atom  29S    basis set group =>   4
Atom  30C    basis set group =>   1
Atom  31C    basis set group =>   1
Atom  32C    basis set group =>   1
Atom  33C    basis set group =>   1
Atom  34C    basis set group =>   1
Atom  35C    basis set group =>   1
Atom  36O    basis set group =>   5
Atom  37O    basis set group =>   5
Atom  38O    basis set group =>   5
Atom  39H    basis set group =>   3
Atom  40H    basis set group =>   3
Atom  41H    basis set group =>   3
Atom  42H    basis set group =>   3
Atom  43H    basis set group =>   3
Atom  44H    basis set group =>   3
-------------------------
ECP PARAMETER INFORMATION
-------------------------



--------------------------------------------------------------------------
[[65010,1],15]: A high-performance Open MPI point-to-point messaging module
was unable to find any relevant network interfaces:

Module: OpenFabrics (openib)
  Host: cx1-105-9-2

Another transport will be used instead, although this may result in
lower performance.
--------------------------------------------------------------------------


           ************************************************************
           *        Program running with 24 parallel MPI-processes    *
           *              working on a common directory               *
           ************************************************************
------------------------------------------------------------------------------
                           ORCA GTO INTEGRAL CALCULATION
                           -- RI-GTO INTEGRALS CHOSEN --
------------------------------------------------------------------------------

                         BASIS SET STATISTICS AND STARTUP INFO

Gaussian basis set:
 # of primitive gaussian shells          ...  732
 # of primitive gaussian functions       ... 1610
 # of contracted shells                  ...  408
 # of contracted basis functions         ... 1082
 Highest angular momentum                ...    3
 Maximum contraction depth               ...    7
Auxiliary gaussian basis set:
 # of primitive gaussian shells          ...  878
 # of primitive gaussian functions       ... 2462
 # of contracted shells                  ...  549
 # of contracted aux-basis functions     ... 1715
 Highest angular momentum                ...    4
 Maximum contraction depth               ...    7
Ratio of auxiliary to basis functions    ...  1.59
Integral package used                  ... LIBINT
 One Electron integrals                  
   ECP integrals                         ... done
 Ordering auxiliary basis shells         ... done
 Integral threshhold             Thresh  ...  2.500e-11
 Primitive cut-off               TCut    ...  2.500e-12
 Pre-screening matrix                    ... done
 Shell pair data                         ... 
 Ordering of the shell pairs             ... done (   0.012 sec) 41744 of 83436 pairs
 Determination of significant pairs      ... done (   0.000 sec)
 Creation of shell pair data             ... done (   0.008 sec)
 Storage of shell pair data              ... done (   0.109 sec)
 Shell pair data done in (   0.130 sec)
 Computing two index integrals           ... done
 Cholesky decomposition of the V-matrix  ... done


Timings:
 Total evaluation time                   ...   5.309 sec (  0.088 min)
 One electron matrix time                ...   1.479 sec (  0.025 min) = 27.9%
 Schwartz matrix evaluation time         ...   2.619 sec (  0.044 min) = 49.3%
 Two index repulsion integral time       ...   0.433 sec (  0.007 min) =  8.2%
 Cholesky decomposition of V             ...   0.607 sec (  0.010 min) = 11.4%
 Three index repulsion integral time     ...   0.000 sec (  0.000 min) =  0.0%

--------------------------------------------------------------------------
[[64581,1],14]: A high-performance Open MPI point-to-point messaging module
was unable to find any relevant network interfaces:

Module: OpenFabrics (openib)
  Host: cx1-105-9-2

Another transport will be used instead, although this may result in
lower performance.
--------------------------------------------------------------------------


           ************************************************************
           *        Program running with 24 parallel MPI-processes    *
           *              working on a common directory               *
           ************************************************************
-------------------------------------------------------------------------------
                                 ORCA SCF
-------------------------------------------------------------------------------

------------
SCF SETTINGS
------------
Hamiltonian:
 Density Functional     Method          .... DFT(GTOs)
 Exchange Functional    Exchange        .... WB97X-D3
 Correlation Functional Correlation     .... WB97X-D3
 Gradients option       PostSCFGGA      .... off
 Hybrid DFT is turned on
   Fraction HF Exchange ScalHFX         ....  0.195728
   Scaling of DF-GGA-X  ScalDFX         ....  0.000000
   Scaling of DF-GGA-C  ScalDFC         ....  1.000000
   Scaling of DF-LDA-C  ScalLDAC        ....  1.000000
   Perturbative correction              ....  0.000000
 Long-range corrected/Screened/Range-Separated Hybrid DFT is turned on
   Amount of maximum screened exact exchange              ....  0.804272
   Range separation parameter mu (erf(mu*r12)/r12)        ....  0.250000
 RI-approximation to the Coulomb term is turned on
   Number of auxiliary basis functions  .... 1715
   RIJ-COSX (HFX calculated with COS-X)).... on


General Settings:
 Integral files         IntName         .... total
 Hartree-Fock type      HFTyp           .... RHF
 Total Charge           Charge          ....    0
 Multiplicity           Mult            ....    1
 Number of Electrons    NEL             ....  236
 Basis Dimension        Dim             .... 1082
 Nuclear Repulsion      ENuc            ....   3128.0877580021 Eh

Convergence Acceleration:
 DIIS                   CNVDIIS         .... on
   Start iteration      DIISMaxIt       ....    12
   Startup error        DIISStart       ....  0.200000
   # of expansion vecs  DIISMaxEq       ....     5
   Bias factor          DIISBfac        ....   1.050
   Max. coefficient     DIISMaxC        ....  10.000
 Newton-Raphson         CNVNR           .... off
 SOSCF                  CNVSOSCF        .... on
   Start iteration      SOSCFMaxIt      ....   150
   Startup grad/error   SOSCFStart      ....  0.003300
 Level Shifting         CNVShift        .... on
   Level shift para.    LevelShift      ....    0.2500
   Turn off err/grad.   ShiftErr        ....    0.0010
 Zerner damping         CNVZerner       .... off
 Static damping         CNVDamp         .... on
   Fraction old density DampFac         ....    0.7000
   Max. Damping (<1)    DampMax         ....    0.9800
   Min. Damping (>=0)   DampMin         ....    0.0000
   Turn off err/grad.   DampErr         ....    0.1000
 Fernandez-Rico         CNVRico         .... off

SCF Procedure:
 Maximum # iterations   MaxIter         ....   125
 SCF integral mode      SCFMode         .... Direct
   Integral package                     .... LIBINT
 Reset frequeny         DirectResetFreq ....    20
 Integral Threshold     Thresh          ....  2.500e-11 Eh
 Primitive CutOff       TCut            ....  2.500e-12 Eh

Convergence Tolerance:
 Convergence Check Mode ConvCheckMode   .... Total+1el-Energy
 Convergence forced     ConvForced      .... 1
 Energy Change          TolE            ....  1.000e-08 Eh
 1-El. energy change                    ....  1.000e-05 Eh
 Orbital Gradient       TolG            ....  1.000e-05
 Orbital Rotation angle TolX            ....  1.000e-05
 DIIS Error             TolErr          ....  5.000e-07


Diagonalization of the overlap matrix:
Smallest eigenvalue                        ... 6.354e-06
Time for diagonalization                   ...    0.558 sec
Threshold for overlap eigenvalues          ... 1.000e-08
Number of eigenvalues below threshold      ... 0
Time for construction of square roots      ...    0.373 sec
Total time needed                          ...    0.938 sec

-------------------
DFT GRID GENERATION
-------------------

General Integration Accuracy     IntAcc      ...  5.010
Radial Grid Type                 RadialGrid  ... Gauss-Chebyshev
Angular Grid (max. acc.)         AngularGrid ... Lebedev-434
Angular grid pruning method      GridPruning ... 3 (G Style)
Weight generation scheme         WeightScheme... Becke
Basis function cutoff            BFCut       ...    1.0000e-11
Integration weight cutoff        WCut        ...    1.0000e-14
Grids for H and He will be reduced by one unit

# of grid points (after initial pruning)     ... 431308 (   0.0 sec)
# of grid points (after weights+screening)   ... 380969 (   1.1 sec)
nearest neighbour list constructed           ...    0.0 sec
Grid point re-assignment to atoms done       ...    0.2 sec
Grid point division into batches done        ...    4.6 sec
Reduced shell lists constructed in    5.4 sec

Total number of grid points                  ...   380969
Total number of batches                      ...     5973
Average number of points per batch           ...       63
Average number of grid points per atom       ...     8466
Average number of shells per batch           ...   134.66 (33.01%)
Average number of basis functions per batch  ...   352.15 (32.55%)
Average number of large shells per batch     ...    91.55 (67.98%)
Average number of large basis fcns per batch ...   239.14 (67.91%)
Maximum spatial batch extension              ...   7.83, 14.64, 10.59 au
Average spatial batch extension              ...   0.05,  0.06,  0.05 au

Time for grid setup =    7.261 sec

------------------------------
INITIAL GUESS: MODEL POTENTIAL
------------------------------
Loading Hartree-Fock densities                     ... done
Calculating cut-offs                               ... done
Setting up the integral package                    ... done
Initializing the effective Hamiltonian             ... done
Starting the Coulomb interaction                   ... done (   0.5 sec)
Reading the grid                                   ... done
Mapping shells                                     ... done
Starting the XC term evaluation                    ... done (   1.9 sec)
  promolecular density results
     # of electrons  =    235.993719710
     EX              =   -223.340954701
     EC              =     -8.190966413
     EX+EC           =   -231.531921114
Transforming the Hamiltonian                       ... done (   0.2 sec)
Diagonalizing the Hamiltonian                      ... done (   0.4 sec)
Back transforming the eigenvectors                 ... done (   0.1 sec)
Now organizing SCF variables                       ... done
                      ------------------
                      INITIAL GUESS DONE (  10.8 sec)
                      ------------------
--------------------
COSX GRID GENERATION
--------------------

General Integration Accuracy     IntAcc      ...  3.340
Radial Grid Type                 RadialGrid  ... Gauss-Chebyshev
Angular Grid (max. acc.)         AngularGrid ... Lebedev-50
Angular grid pruning method      GridPruning ... 3 (G Style)
Weight generation scheme         WeightScheme... Becke
Basis function cutoff            BFCut       ...    1.0000e-11
Integration weight cutoff        WCut        ...    1.0000e-14
Grids for H and He will be reduced by one unit

# of grid points (after initial pruning)     ...  22902 (   0.0 sec)
# of grid points (after weights+screening)   ...  21011 (   0.1 sec)
nearest neighbour list constructed           ...    0.0 sec
Grid point re-assignment to atoms done       ...    0.0 sec
Grid point division into batches done        ...    0.0 sec
Reduced shell lists constructed in    0.1 sec

Total number of grid points                  ...    21011
Total number of batches                      ...      350
Average number of points per batch           ...       60
Average number of grid points per atom       ...      467
Average number of shells per batch           ...   146.62 (35.94%)
Average number of basis functions per batch  ...   386.12 (35.69%)
Average number of large shells per batch     ...   101.69 (69.35%)
Average number of large basis fcns per batch ...   270.31 (70.01%)
Maximum spatial batch extension              ...   5.94, 18.93,  5.60 au
Average spatial batch extension              ...   0.13,  0.28,  0.12 au

Overlap Fitting                  UseSFitting ... on
Constructing numerical overlap ... done (      0.1 sec)
Inverting numerical overlap    ... done (      0.2 sec)
Obtaining analytic overlap     ... done (      0.0 sec)
Final contraction and storage  ... done (      0.5 sec)


General Integration Accuracy     IntAcc      ...  3.670
Radial Grid Type                 RadialGrid  ... Gauss-Chebyshev
Angular Grid (max. acc.)         AngularGrid ... Lebedev-50
Angular grid pruning method      GridPruning ... 3 (G Style)
Weight generation scheme         WeightScheme... Becke
Basis function cutoff            BFCut       ...    1.0000e-11
Integration weight cutoff        WCut        ...    1.0000e-14
Grids for H and He will be reduced by one unit

# of grid points (after initial pruning)     ...  28660 (   0.0 sec)
# of grid points (after weights+screening)   ...  26196 (   0.1 sec)
nearest neighbour list constructed           ...    0.0 sec
Grid point re-assignment to atoms done       ...    0.0 sec
Grid point division into batches done        ...    0.0 sec
Reduced shell lists constructed in    0.1 sec

Total number of grid points                  ...    26196
Total number of batches                      ...      433
Average number of points per batch           ...       60
Average number of grid points per atom       ...      582
Average number of shells per batch           ...   147.70 (36.20%)
Average number of basis functions per batch  ...   391.40 (36.17%)
Average number of large shells per batch     ...   101.85 (68.96%)
Average number of large basis fcns per batch ...   270.35 (69.07%)
Maximum spatial batch extension              ...   6.19, 17.56,  4.09 au
Average spatial batch extension              ...   0.12,  0.21,  0.10 au

Overlap Fitting                  UseSFitting ... on
Constructing numerical overlap ... done (      0.1 sec)
Inverting numerical overlap    ... done (      0.1 sec)
Obtaining analytic overlap     ... done (      0.0 sec)
Final contraction and storage  ... done (      0.5 sec)


General Integration Accuracy     IntAcc      ...  4.010
Radial Grid Type                 RadialGrid  ... Gauss-Chebyshev
Angular Grid (max. acc.)         AngularGrid ... Lebedev-110
Angular grid pruning method      GridPruning ... 3 (G Style)
Weight generation scheme         WeightScheme... Becke
Basis function cutoff            BFCut       ...    1.0000e-11
Integration weight cutoff        WCut        ...    1.0000e-14
Grids for H and He will be reduced by one unit

# of grid points (after initial pruning)     ...  55850 (   0.0 sec)
# of grid points (after weights+screening)   ...  50608 (   0.1 sec)
nearest neighbour list constructed           ...    0.0 sec
Grid point re-assignment to atoms done       ...    0.0 sec
Grid point division into batches done        ...    0.1 sec
Reduced shell lists constructed in    0.2 sec

Total number of grid points                  ...    50608
Total number of batches                      ...      811
Average number of points per batch           ...       62
Average number of grid points per atom       ...     1125
Average number of shells per batch           ...   145.37 (35.63%)
Average number of basis functions per batch  ...   384.69 (35.55%)
Average number of large shells per batch     ...   100.37 (69.04%)
Average number of large basis fcns per batch ...   265.91 (69.13%)
Maximum spatial batch extension              ...   6.19, 17.67,  5.73 au
Average spatial batch extension              ...   0.10,  0.16,  0.09 au

Overlap Fitting                  UseSFitting ... on
Constructing numerical overlap ... done (      0.2 sec)
Inverting numerical overlap    ... done (      0.1 sec)
Obtaining analytic overlap     ... done (      0.0 sec)
Final contraction and storage  ... done (      0.5 sec)

Time for X-Grid setup             =    3.501 sec
--------------
SCF ITERATIONS
--------------
ITER       Energy         Delta-E        Max-DP      RMS-DP      [F,P]     Damp
               ***  Starting incremental Fock matrix formation  ***
  0  -2141.3805895375   0.000000000000 0.10275051  0.00063011  0.2031154 0.7000
  1  -2141.6632685501  -0.282679012610 0.09911285  0.00052262  0.1057697 0.7000
                               ***Turning on DIIS***
  2  -2141.7975771663  -0.134308616212 0.17764497  0.00108328  0.0542288 0.0000
  3  -2142.0157233309  -0.218146164615 0.07487194  0.00036474  0.0460786 0.0000
  4  -2142.0537551149  -0.038031783949 0.01899205  0.00012886  0.0092873 0.0000
  5  -2142.0554831033  -0.001727988449 0.00788505  0.00005467  0.0039962 0.0000
                      *** Initiating the SOSCF procedure ***
                           *** Shutting down DIIS ***
                      *** Re-Reading the Fockian *** 
                      *** Removing any level shift *** 
ITER      Energy       Delta-E        Grad      Rot      Max-DP    RMS-DP
  6  -2142.05588643  -0.0004033281  0.002073  0.002073  0.002680  0.000030
               *** Restarting incremental Fock matrix formation ***
  7  -2142.05602971  -0.0001432831  0.001328  0.003690  0.014982  0.000115
  8  -2142.05608653  -0.0000568120  0.000435  0.003644  0.008881  0.000072
  9  -2142.05610153  -0.0000150023  0.000172  0.000638  0.008032  0.000060
 10  -2142.05610728  -0.0000057480  0.000072  0.000238  0.001210  0.000009
 11  -2142.05610739  -0.0000001144  0.000073  0.000121  0.000835  0.000006
 12  -2142.05610775  -0.0000003631  0.000012  0.000022  0.000150  0.000002
 13  -2142.05610775   0.0000000063  0.000007  0.000010  0.000141  0.000001
 14  -2142.05610780  -0.0000000560  0.000003  0.000009  0.000243  0.000002
                  ***Gradient check signals convergence***
              ***Rediagonalizing the Fockian in SOSCF/NRSCF***

               *****************************************************
               *                     SUCCESS                       *
               *           SCF CONVERGED AFTER  15 CYCLES          *
               *****************************************************

Old exchange energy                            =    -69.651509219 Eh
New exchange energy                            =    -69.652016906 Eh
Exchange energy change after final integration =     -0.000507687 Eh
Total energy after final integration           =  -2142.056615527 Eh
Final COS-X integration done in                =    40.811 sec

----------------
TOTAL SCF ENERGY
----------------

Total Energy       :        -2142.05661553 Eh          -58288.32383 eV

Components:
Nuclear Repulsion  :         3128.08775800 Eh           85119.59529 eV
Electronic Energy  :        -5270.14437353 Eh         -143407.91912 eV
One Electron Energy:        -9150.89942598 Eh         -249008.63274 eV
Two Electron Energy:         3880.75505245 Eh          105600.71361 eV

Virial components:
Potential Energy   :        -4275.63143774 Eh         -116345.84633 eV
Kinetic Energy     :         2133.57482221 Eh           58057.52250 eV
Virial Ratio       :            2.00397539


DFT components:
N(Alpha)           :      118.000015312778 electrons
N(Beta)            :      118.000015312778 electrons
N(Total)           :      236.000030625556 electrons
E(XC)              :     -165.987168100082 Eh       

---------------
SCF CONVERGENCE
---------------

  Last Energy change         ...   -3.6094e-08  Tolerance :   1.0000e-08
  Last MAX-Density change    ...    4.1232e-13  Tolerance :   1.0000e-07
  Last RMS-Density change    ...    6.8319e-16  Tolerance :   5.0000e-09
  Last Orbital Gradient      ...    1.7337e-06  Tolerance :   1.0000e-05
  Last Orbital Rotation      ...    2.9559e-06  Tolerance :   1.0000e-05

             **** THE GBW FILE WAS UPDATED (total.gbw) ****
             **** DENSITY FILE WAS UPDATED (total.scfp.tmp) ****
             **** ENERGY FILE WAS UPDATED (total.en.tmp) ****
----------------
ORBITAL ENERGIES
----------------

  NO   OCC          E(Eh)            E(eV) 
   0   2.0000     -89.019848     -2422.3532 
   1   2.0000     -89.011831     -2422.1351 
   2   2.0000     -19.298022      -525.1259 
   3   2.0000     -19.281214      -524.6685 
   4   2.0000     -19.276979      -524.5533 
   5   2.0000     -14.483198      -394.1079 
   6   2.0000     -14.477235      -393.9456 
   7   2.0000     -14.476395      -393.9227 
   8   2.0000     -14.468794      -393.7159 
   9   2.0000     -14.468106      -393.6972 
  10   2.0000     -10.388147      -282.6759 
  11   2.0000     -10.387185      -282.6497 
  12   2.0000     -10.383416      -282.5471 
  13   2.0000     -10.377149      -282.3766 
  14   2.0000     -10.376515      -282.3593 
  15   2.0000     -10.365019      -282.0465 
  16   2.0000     -10.355163      -281.7783 
  17   2.0000     -10.339170      -281.3431 
  18   2.0000     -10.335098      -281.2323 
  19   2.0000     -10.322248      -280.8826 
  20   2.0000     -10.319522      -280.8085 
  21   2.0000     -10.309219      -280.5281 
  22   2.0000     -10.301981      -280.3312 
  23   2.0000     -10.300411      -280.2884 
  24   2.0000     -10.299969      -280.2764 
  25   2.0000     -10.297409      -280.2067 
  26   2.0000     -10.294377      -280.1242 
  27   2.0000     -10.293631      -280.1039 
  28   2.0000     -10.293478      -280.0998 
  29   2.0000     -10.292807      -280.0815 
  30   2.0000     -10.291157      -280.0366 
  31   2.0000     -10.283260      -279.8217 
  32   2.0000      -8.116577      -220.8633 
  33   2.0000      -8.108095      -220.6325 
  34   2.0000      -6.069531      -165.1603 
  35   2.0000      -6.066109      -165.0672 
  36   2.0000      -6.063480      -164.9957 
  37   2.0000      -6.061166      -164.9327 
  38   2.0000      -6.057238      -164.8258 
  39   2.0000      -6.055173      -164.7696 
  40   2.0000      -1.218998       -33.1706 
  41   2.0000      -1.200129       -32.6572 
  42   2.0000      -1.175451       -31.9857 
  43   2.0000      -1.162125       -31.6230 
  44   2.0000      -1.152932       -31.3729 
  45   2.0000      -1.114516       -30.3275 
  46   2.0000      -1.002067       -27.2676 
  47   2.0000      -0.993273       -27.0283 
  48   2.0000      -0.977432       -26.5973 
  49   2.0000      -0.974443       -26.5159 
  50   2.0000      -0.952918       -25.9302 
  51   2.0000      -0.938988       -25.5512 
  52   2.0000      -0.921369       -25.0717 
  53   2.0000      -0.908989       -24.7349 
  54   2.0000      -0.880525       -23.9603 
  55   2.0000      -0.876134       -23.8408 
  56   2.0000      -0.870452       -23.6862 
  57   2.0000      -0.855016       -23.2662 
  58   2.0000      -0.848222       -23.0813 
  59   2.0000      -0.788419       -21.4540 
  60   2.0000      -0.782404       -21.2903 
  61   2.0000      -0.774238       -21.0681 
  62   2.0000      -0.757665       -20.6171 
  63   2.0000      -0.738467       -20.0947 
  64   2.0000      -0.730257       -19.8713 
  65   2.0000      -0.722505       -19.6604 
  66   2.0000      -0.706968       -19.2376 
  67   2.0000      -0.685299       -18.6479 
  68   2.0000      -0.683615       -18.6021 
  69   2.0000      -0.675637       -18.3850 
  70   2.0000      -0.658030       -17.9059 
  71   2.0000      -0.645766       -17.5722 
  72   2.0000      -0.635238       -17.2857 
  73   2.0000      -0.631479       -17.1834 
  74   2.0000      -0.621500       -16.9119 
  75   2.0000      -0.615367       -16.7450 
  76   2.0000      -0.594887       -16.1877 
  77   2.0000      -0.581479       -15.8228 
  78   2.0000      -0.574264       -15.6265 
  79   2.0000      -0.573059       -15.5937 
  80   2.0000      -0.566946       -15.4274 
  81   2.0000      -0.564618       -15.3640 
  82   2.0000      -0.559643       -15.2287 
  83   2.0000      -0.556584       -15.1454 
  84   2.0000      -0.549025       -14.9397 
  85   2.0000      -0.548060       -14.9135 
  86   2.0000      -0.539626       -14.6840 
  87   2.0000      -0.537261       -14.6196 
  88   2.0000      -0.529160       -14.3992 
  89   2.0000      -0.527906       -14.3650 
  90   2.0000      -0.524932       -14.2841 
  91   2.0000      -0.517425       -14.0798 
  92   2.0000      -0.515260       -14.0210 
  93   2.0000      -0.499140       -13.5823 
  94   2.0000      -0.481571       -13.1042 
  95   2.0000      -0.478425       -13.0186 
  96   2.0000      -0.476080       -12.9548 
  97   2.0000      -0.475202       -12.9309 
  98   2.0000      -0.473115       -12.8741 
  99   2.0000      -0.466904       -12.7051 
 100   2.0000      -0.459263       -12.4972 
 101   2.0000      -0.454352       -12.3636 
 102   2.0000      -0.447798       -12.1852 
 103   2.0000      -0.444451       -12.0941 
 104   2.0000      -0.428534       -11.6610 
 105   2.0000      -0.419088       -11.4040 
 106   2.0000      -0.408512       -11.1162 
 107   2.0000      -0.406401       -11.0587 
 108   2.0000      -0.396378       -10.7860 
 109   2.0000      -0.390074       -10.6144 
 110   2.0000      -0.380060       -10.3420 
 111   2.0000      -0.373352       -10.1594 
 112   2.0000      -0.368855       -10.0370 
 113   2.0000      -0.345028        -9.3887 
 114   2.0000      -0.322061        -8.7637 
 115   2.0000      -0.309291        -8.4162 
 116   2.0000      -0.304031        -8.2731 
 117   2.0000      -0.295634        -8.0446 
 118   0.0000      -0.036405        -0.9906 
 119   0.0000       0.001480         0.0403 
 120   0.0000       0.028214         0.7677 
 121   0.0000       0.036642         0.9971 
 122   0.0000       0.047590         1.2950 
 123   0.0000       0.061166         1.6644 
 124   0.0000       0.065730         1.7886 
 125   0.0000       0.077271         2.1027 
 126   0.0000       0.087744         2.3876 
 127   0.0000       0.096967         2.6386 
 128   0.0000       0.103554         2.8178 
 129   0.0000       0.104290         2.8379 
 130   0.0000       0.107367         2.9216 
 131   0.0000       0.120790         3.2869 
 132   0.0000       0.124672         3.3925 
 133   0.0000       0.128041         3.4842 
 134   0.0000       0.131913         3.5895 
 135   0.0000       0.143351         3.9008 
 136   0.0000       0.148063         4.0290 
 137   0.0000       0.155051         4.2192 
 138   0.0000       0.157799         4.2939 
 139   0.0000       0.163746         4.4558 
 140   0.0000       0.166883         4.5411 
 141   0.0000       0.173915         4.7325 
 142   0.0000       0.178894         4.8680 
 143   0.0000       0.184701         5.0260 
 144   0.0000       0.188564         5.1311 
 145   0.0000       0.198337         5.3970 
 146   0.0000       0.200499         5.4559 
 147   0.0000       0.203925         5.5491 
 148   0.0000       0.209991         5.7141 
 149   0.0000       0.217022         5.9055 
 150   0.0000       0.229992         6.2584 
 151   0.0000       0.233130         6.3438 
 152   0.0000       0.235010         6.3949 
 153   0.0000       0.237466         6.4618 
 154   0.0000       0.243535         6.6269 
 155   0.0000       0.247588         6.7372 
 156   0.0000       0.250781         6.8241 
 157   0.0000       0.255368         6.9489 
 158   0.0000       0.257391         7.0040 
 159   0.0000       0.263734         7.1766 
 160   0.0000       0.265496         7.2245 
 161   0.0000       0.268564         7.3080 
 162   0.0000       0.272563         7.4168 
 163   0.0000       0.273960         7.4548 
 164   0.0000       0.277620         7.5544 
 165   0.0000       0.280551         7.6342 
 166   0.0000       0.285821         7.7776 
 167   0.0000       0.287803         7.8315 
 168   0.0000       0.289661         7.8821 
 169   0.0000       0.292585         7.9616 
 170   0.0000       0.294803         8.0220 
 171   0.0000       0.299376         8.1464 
 172   0.0000       0.301244         8.1973 
 173   0.0000       0.304240         8.2788 
 174   0.0000       0.307354         8.3635 
 175   0.0000       0.309840         8.4312 
 176   0.0000       0.321116         8.7380 
 177   0.0000       0.321555         8.7500 
 178   0.0000       0.326820         8.8932 
 179   0.0000       0.329768         8.9734 
 180   0.0000       0.332375         9.0444 
 181   0.0000       0.335011         9.1161 
 182   0.0000       0.336929         9.1683 
 183   0.0000       0.342213         9.3121 
 184   0.0000       0.344189         9.3659 
 185   0.0000       0.351393         9.5619 
 186   0.0000       0.353693         9.6245 
 187   0.0000       0.361076         9.8254 
 188   0.0000       0.364767         9.9258 
 189   0.0000       0.365180         9.9370 
 190   0.0000       0.366501         9.9730 
 191   0.0000       0.370823        10.0906 
 192   0.0000       0.374366        10.1870 
 193   0.0000       0.380515        10.3543 
 194   0.0000       0.385452        10.4887 
 195   0.0000       0.387267        10.5381 
 196   0.0000       0.388796        10.5797 
 197   0.0000       0.393749        10.7145 
 198   0.0000       0.394581        10.7371 
 199   0.0000       0.396234        10.7821 
 200   0.0000       0.401835        10.9345 
 201   0.0000       0.405749        11.0410 
 202   0.0000       0.408902        11.1268 
 203   0.0000       0.411339        11.1931 
 204   0.0000       0.412785        11.2324 
 205   0.0000       0.415351        11.3023 
 206   0.0000       0.421233        11.4623 
 207   0.0000       0.424917        11.5626 
 208   0.0000       0.426992        11.6190 
 209   0.0000       0.431297        11.7362 
 210   0.0000       0.433098        11.7852 
 211   0.0000       0.433979        11.8092 
 212   0.0000       0.440201        11.9785 
 213   0.0000       0.441095        12.0028 
 214   0.0000       0.442963        12.0536 
 215   0.0000       0.445183        12.1140 
 216   0.0000       0.447630        12.1806 
 217   0.0000       0.453252        12.3336 
 218   0.0000       0.458330        12.4718 
 219   0.0000       0.459929        12.5153 
 220   0.0000       0.464040        12.6272 
 221   0.0000       0.466581        12.6963 
 222   0.0000       0.468369        12.7450 
 223   0.0000       0.471171        12.8212 
 224   0.0000       0.477426        12.9914 
 225   0.0000       0.480926        13.0867 
 226   0.0000       0.486230        13.2310 
 227   0.0000       0.489544        13.3212 
 228   0.0000       0.494347        13.4519 
 229   0.0000       0.496966        13.5231 
 230   0.0000       0.498238        13.5578 
 231   0.0000       0.501857        13.6562 
 232   0.0000       0.505146        13.7457 
 233   0.0000       0.507242        13.8028 
 234   0.0000       0.509252        13.8575 
 235   0.0000       0.512231        13.9385 
 236   0.0000       0.513354        13.9691 
 237   0.0000       0.519648        14.1403 
 238   0.0000       0.525081        14.2882 
 239   0.0000       0.525451        14.2983 
 240   0.0000       0.533200        14.5091 
 241   0.0000       0.535048        14.5594 
 242   0.0000       0.537495        14.6260 
 243   0.0000       0.544511        14.8169 
 244   0.0000       0.545582        14.8460 
 245   0.0000       0.549366        14.9490 
 246   0.0000       0.550701        14.9853 
 247   0.0000       0.557023        15.1574 
 248   0.0000       0.558731        15.2039 
 249   0.0000       0.559206        15.2168 
 250   0.0000       0.569710        15.5026 
 251   0.0000       0.572036        15.5659 
 252   0.0000       0.574899        15.6438 
 253   0.0000       0.580111        15.7856 
 254   0.0000       0.582643        15.8545 
 255   0.0000       0.587425        15.9846 
 256   0.0000       0.589531        16.0420 
 257   0.0000       0.594885        16.1876 
 258   0.0000       0.595255        16.1977 
 259   0.0000       0.608448        16.5567 
 260   0.0000       0.610989        16.6258 
 261   0.0000       0.616361        16.7720 
 262   0.0000       0.620480        16.8841 
 263   0.0000       0.622930        16.9508 
 264   0.0000       0.627002        17.0616 
 265   0.0000       0.630711        17.1625 
 266   0.0000       0.635750        17.2996 
 267   0.0000       0.637719        17.3532 
 268   0.0000       0.649909        17.6849 
 269   0.0000       0.652199        17.7472 
 270   0.0000       0.655464        17.8361 
 271   0.0000       0.657559        17.8931 
 272   0.0000       0.663266        18.0484 
 273   0.0000       0.665973        18.1220 
 274   0.0000       0.672321        18.2948 
 275   0.0000       0.675132        18.3713 
 276   0.0000       0.680234        18.5101 
 277   0.0000       0.683310        18.5938 
 278   0.0000       0.685480        18.6529 
 279   0.0000       0.689512        18.7626 
 280   0.0000       0.691453        18.8154 
 281   0.0000       0.695596        18.9281 
 282   0.0000       0.700374        19.0581 
 283   0.0000       0.701691        19.0940 
 284   0.0000       0.706871        19.2349 
 285   0.0000       0.710749        19.3405 
 286   0.0000       0.713661        19.4197 
 287   0.0000       0.716395        19.4941 
 288   0.0000       0.718538        19.5524 
 289   0.0000       0.723879        19.6977 
 290   0.0000       0.729449        19.8493 
 291   0.0000       0.733371        19.9560 
 292   0.0000       0.737650        20.0725 
 293   0.0000       0.743900        20.2426 
 294   0.0000       0.749300        20.3895 
 295   0.0000       0.752779        20.4842 
 296   0.0000       0.753925        20.5153 
 297   0.0000       0.755698        20.5636 
 298   0.0000       0.760820        20.7030 
 299   0.0000       0.764323        20.7983 
 300   0.0000       0.766796        20.8656 
 301   0.0000       0.770082        20.9550 
 302   0.0000       0.781521        21.2663 
 303   0.0000       0.784247        21.3404 
 304   0.0000       0.790023        21.4976 
 305   0.0000       0.793885        21.6027 
 306   0.0000       0.796062        21.6620 
 307   0.0000       0.798895        21.7390 
 308   0.0000       0.804969        21.9043 
 309   0.0000       0.810068        22.0431 
 310   0.0000       0.811559        22.0836 
 311   0.0000       0.816660        22.2224 
 312   0.0000       0.817856        22.2550 
 313   0.0000       0.821881        22.3645 
 314   0.0000       0.827240        22.5104 
 315   0.0000       0.832329        22.6488 
 316   0.0000       0.835697        22.7405 
 317   0.0000       0.842638        22.9293 
 318   0.0000       0.843885        22.9633 
 319   0.0000       0.846757        23.0414 
 320   0.0000       0.854337        23.2477 
 321   0.0000       0.856508        23.3068 
 322   0.0000       0.863508        23.4972 
 323   0.0000       0.869482        23.6598 
 324   0.0000       0.873817        23.7778 
 325   0.0000       0.882503        24.0141 
 326   0.0000       0.884219        24.0608 
 327   0.0000       0.894253        24.3339 
 328   0.0000       0.896168        24.3860 
 329   0.0000       0.901468        24.5302 
 330   0.0000       0.904232        24.6054 
 331   0.0000       0.905086        24.6286 
 332   0.0000       0.910300        24.7705 
 333   0.0000       0.914523        24.8854 
 334   0.0000       0.920621        25.0514 
 335   0.0000       0.926324        25.2066 
 336   0.0000       0.930275        25.3141 
 337   0.0000       0.934364        25.4253 
 338   0.0000       0.935220        25.4486 
 339   0.0000       0.941734        25.6259 
 340   0.0000       0.948140        25.8002 
 341   0.0000       0.948555        25.8115 
 342   0.0000       0.954317        25.9683 
 343   0.0000       0.959311        26.1042 
 344   0.0000       0.960135        26.1266 
 345   0.0000       0.962089        26.1798 
 346   0.0000       0.976933        26.5837 
 347   0.0000       0.984475        26.7889 
 348   0.0000       0.985254        26.8101 
 349   0.0000       0.989792        26.9336 
 350   0.0000       0.995408        27.0864 
 351   0.0000       0.999301        27.1924 
 352   0.0000       1.002409        27.2769 
 353   0.0000       1.007937        27.4274 
 354   0.0000       1.016254        27.6537 
 355   0.0000       1.026520        27.9330 
 356   0.0000       1.028144        27.9772 
 357   0.0000       1.036371        28.2011 
 358   0.0000       1.041880        28.3510 
 359   0.0000       1.048597        28.5338 
 360   0.0000       1.058645        28.8072 
 361   0.0000       1.068123        29.0651 
 362   0.0000       1.072172        29.1753 
 363   0.0000       1.074639        29.2424 
 364   0.0000       1.081606        29.4320 
 365   0.0000       1.083065        29.4717 
 366   0.0000       1.084458        29.5096 
 367   0.0000       1.107510        30.1369 
 368   0.0000       1.111816        30.2540 
 369   0.0000       1.114331        30.3225 
 370   0.0000       1.122242        30.5378 
 371   0.0000       1.129540        30.7364 
 372   0.0000       1.134283        30.8654 
 373   0.0000       1.143713        31.1220 
 374   0.0000       1.146894        31.2086 
 375   0.0000       1.150495        31.3066 
 376   0.0000       1.160423        31.5767 
 377   0.0000       1.172213        31.8975 
 378   0.0000       1.175512        31.9873 
 379   0.0000       1.180453        32.1218 
 380   0.0000       1.183991        32.2180 
 381   0.0000       1.189039        32.3554 
 382   0.0000       1.204858        32.7858 
 383   0.0000       1.207278        32.8517 
 384   0.0000       1.211211        32.9587 
 385   0.0000       1.227223        33.3944 
 386   0.0000       1.230225        33.4761 
 387   0.0000       1.243425        33.8353 
 388   0.0000       1.251100        34.0442 
 389   0.0000       1.257479        34.2177 
 390   0.0000       1.268184        34.5090 
 391   0.0000       1.270379        34.5688 
 392   0.0000       1.275485        34.7077 
 393   0.0000       1.279135        34.8070 
 394   0.0000       1.290829        35.1252 
 395   0.0000       1.292637        35.1744 
 396   0.0000       1.299276        35.3551 
 397   0.0000       1.306660        35.5560 
 398   0.0000       1.315023        35.7836 
 399   0.0000       1.321184        35.9513 
 400   0.0000       1.322182        35.9784 
 401   0.0000       1.330090        36.1936 
 402   0.0000       1.333856        36.2961 
 403   0.0000       1.341950        36.5163 
 404   0.0000       1.346997        36.6536 
 405   0.0000       1.347969        36.6801 
 406   0.0000       1.350950        36.7612 
 407   0.0000       1.357484        36.9390 
 408   0.0000       1.367840        37.2208 
 409   0.0000       1.368749        37.2456 
 410   0.0000       1.378455        37.5097 
 411   0.0000       1.382895        37.6305 
 412   0.0000       1.395478        37.9729 
 413   0.0000       1.399486        38.0820 
 414   0.0000       1.403426        38.1892 
 415   0.0000       1.406708        38.2785 
 416   0.0000       1.409981        38.3675 
 417   0.0000       1.419027        38.6137 
 418   0.0000       1.429421        38.8965 
 419   0.0000       1.436090        39.0780 
 420   0.0000       1.440921        39.2094 
 421   0.0000       1.446257        39.3547 
 422   0.0000       1.455797        39.6142 
 423   0.0000       1.457160        39.6513 
 424   0.0000       1.458078        39.6763 
 425   0.0000       1.463400        39.8211 
 426   0.0000       1.476556        40.1791 
 427   0.0000       1.479474        40.2585 
 428   0.0000       1.483141        40.3583 
 429   0.0000       1.491867        40.5958 
 430   0.0000       1.493398        40.6374 
 431   0.0000       1.499519        40.8040 
 432   0.0000       1.499894        40.8142 
 433   0.0000       1.512089        41.1460 
 434   0.0000       1.517100        41.2824 
 435   0.0000       1.524694        41.4890 
 436   0.0000       1.531064        41.6624 
 437   0.0000       1.532564        41.7032 
 438   0.0000       1.543703        42.0063 
 439   0.0000       1.551131        42.2084 
 440   0.0000       1.554718        42.3060 
 441   0.0000       1.559719        42.4421 
 442   0.0000       1.565209        42.5915 
 443   0.0000       1.574793        42.8523 
 444   0.0000       1.578415        42.9508 
 445   0.0000       1.581896        43.0456 
 446   0.0000       1.588570        43.2272 
 447   0.0000       1.592656        43.3384 
 448   0.0000       1.599579        43.5268 
 449   0.0000       1.601349        43.5749 
 450   0.0000       1.602882        43.6166 
 451   0.0000       1.607396        43.7395 
 452   0.0000       1.619095        44.0578 
 453   0.0000       1.619197        44.0606 
 454   0.0000       1.622174        44.1416 
 455   0.0000       1.626661        44.2637 
 456   0.0000       1.634780        44.4846 
 457   0.0000       1.636411        44.5290 
 458   0.0000       1.642129        44.6846 
 459   0.0000       1.645306        44.7710 
 460   0.0000       1.657883        45.1133 
 461   0.0000       1.659378        45.1540 
 462   0.0000       1.666423        45.3457 
 463   0.0000       1.670956        45.4690 
 464   0.0000       1.672869        45.5211 
 465   0.0000       1.675659        45.5970 
 466   0.0000       1.680789        45.7366 
 467   0.0000       1.684157        45.8283 
 468   0.0000       1.686313        45.8869 
 469   0.0000       1.693110        46.0719 
 470   0.0000       1.695021        46.1239 
 471   0.0000       1.700409        46.2705 
 472   0.0000       1.704099        46.3709 
 473   0.0000       1.709631        46.5214 
 474   0.0000       1.714479        46.6533 
 475   0.0000       1.717674        46.7403 
 476   0.0000       1.726210        46.9726 
 477   0.0000       1.728681        47.0398 
 478   0.0000       1.732644        47.1476 
 479   0.0000       1.748634        47.5827 
 480   0.0000       1.754896        47.7531 
 481   0.0000       1.759946        47.8906 
 482   0.0000       1.766349        48.0648 
 483   0.0000       1.767738        48.1026 
 484   0.0000       1.770351        48.1737 
 485   0.0000       1.772758        48.2392 
 486   0.0000       1.779385        48.4195 
 487   0.0000       1.785078        48.5744 
 488   0.0000       1.790720        48.7280 
 489   0.0000       1.794814        48.8394 
 490   0.0000       1.800255        48.9874 
 491   0.0000       1.801235        49.0141 
 492   0.0000       1.809163        49.2298 
 493   0.0000       1.810303        49.2609 
 494   0.0000       1.812763        49.3278 
 495   0.0000       1.822109        49.5821 
 496   0.0000       1.824084        49.6359 
 497   0.0000       1.832043        49.8524 
 498   0.0000       1.832993        49.8783 
 499   0.0000       1.838006        50.0147 
 500   0.0000       1.845901        50.2295 
 501   0.0000       1.851887        50.3924 
 502   0.0000       1.854892        50.4742 
 503   0.0000       1.857073        50.5335 
 504   0.0000       1.863082        50.6970 
 505   0.0000       1.867812        50.8257 
 506   0.0000       1.871159        50.9168 
 507   0.0000       1.875474        51.0342 
 508   0.0000       1.888951        51.4010 
 509   0.0000       1.895627        51.5826 
 510   0.0000       1.905182        51.8426 
 511   0.0000       1.922447        52.3124 
 512   0.0000       1.927247        52.4430 
 513   0.0000       1.929823        52.5132 
 514   0.0000       1.942428        52.8561 
 515   0.0000       1.947684        52.9992 
 516   0.0000       1.953231        53.1501 
 517   0.0000       1.958278        53.2874 
 518   0.0000       1.963212        53.4217 
 519   0.0000       1.965798        53.4921 
 520   0.0000       1.973369        53.6981 
 521   0.0000       1.975463        53.7551 
 522   0.0000       1.981640        53.9232 
 523   0.0000       1.985582        54.0304 
 524   0.0000       1.992617        54.2219 
 525   0.0000       1.996216        54.3198 
 526   0.0000       1.999143        54.3994 
 527   0.0000       2.010014        54.6953 
 528   0.0000       2.020137        54.9707 
 529   0.0000       2.023962        55.0748 
 530   0.0000       2.031111        55.2693 
 531   0.0000       2.032554        55.3086 
 532   0.0000       2.041434        55.5502 
 533   0.0000       2.052236        55.8442 
 534   0.0000       2.056921        55.9717 
 535   0.0000       2.066549        56.2337 
 536   0.0000       2.069048        56.3017 
 537   0.0000       2.079267        56.5797 
 538   0.0000       2.083571        56.6969 
 539   0.0000       2.088721        56.8370 
 540   0.0000       2.098575        57.1051 
 541   0.0000       2.107532        57.3489 
 542   0.0000       2.110602        57.4324 
 543   0.0000       2.114401        57.5358 
 544   0.0000       2.115446        57.5642 
 545   0.0000       2.120995        57.7152 
 546   0.0000       2.123925        57.7949 
 547   0.0000       2.129427        57.9447 
 548   0.0000       2.146460        58.4082 
 549   0.0000       2.149218        58.4832 
 550   0.0000       2.158516        58.7362 
 551   0.0000       2.167367        58.9771 
 552   0.0000       2.174689        59.1763 
 553   0.0000       2.178661        59.2844 
 554   0.0000       2.183085        59.4048 
 555   0.0000       2.185649        59.4745 
 556   0.0000       2.192222        59.6534 
 557   0.0000       2.193282        59.6822 
 558   0.0000       2.201746        59.9126 
 559   0.0000       2.205608        60.0176 
 560   0.0000       2.214481        60.2591 
 561   0.0000       2.222165        60.4682 
 562   0.0000       2.227653        60.6175 
 563   0.0000       2.231281        60.7163 
 564   0.0000       2.246296        61.1248 
 565   0.0000       2.249591        61.2145 
 566   0.0000       2.250850        61.2487 
 567   0.0000       2.255331        61.3707 
 568   0.0000       2.261640        61.5423 
 569   0.0000       2.263572        61.5949 
 570   0.0000       2.274702        61.8978 
 571   0.0000       2.278618        62.0043 
 572   0.0000       2.281869        62.0928 
 573   0.0000       2.294779        62.4441 
 574   0.0000       2.304392        62.7057 
 575   0.0000       2.305752        62.7427 
 576   0.0000       2.312338        62.9219 
 577   0.0000       2.319650        63.1209 
 578   0.0000       2.321387        63.1682 
 579   0.0000       2.328161        63.3525 
 580   0.0000       2.340088        63.6770 
 581   0.0000       2.341187        63.7069 
 582   0.0000       2.352196        64.0065 
 583   0.0000       2.358255        64.1714 
 584   0.0000       2.363799        64.3222 
 585   0.0000       2.371247        64.5249 
 586   0.0000       2.379737        64.7559 
 587   0.0000       2.383585        64.8606 
 588   0.0000       2.392398        65.1005 
 589   0.0000       2.397725        65.2454 
 590   0.0000       2.414915        65.7132 
 591   0.0000       2.419277        65.8319 
 592   0.0000       2.426659        66.0327 
 593   0.0000       2.430939        66.1492 
 594   0.0000       2.439915        66.3935 
 595   0.0000       2.445772        66.5528 
 596   0.0000       2.462810        67.0165 
 597   0.0000       2.468604        67.1741 
 598   0.0000       2.471828        67.2619 
 599   0.0000       2.491016        67.7840 
 600   0.0000       2.492357        67.8205 
 601   0.0000       2.496367        67.9296 
 602   0.0000       2.512307        68.3634 
 603   0.0000       2.518305        68.5266 
 604   0.0000       2.527646        68.7807 
 605   0.0000       2.539821        69.1121 
 606   0.0000       2.552178        69.4483 
 607   0.0000       2.557384        69.5899 
 608   0.0000       2.563408        69.7539 
 609   0.0000       2.572530        70.0021 
 610   0.0000       2.576201        70.1020 
 611   0.0000       2.584400        70.3251 
 612   0.0000       2.586852        70.3918 
 613   0.0000       2.597277        70.6755 
 614   0.0000       2.608563        70.9826 
 615   0.0000       2.620734        71.3138 
 616   0.0000       2.625133        71.4335 
 617   0.0000       2.631244        71.5998 
 618   0.0000       2.651537        72.1520 
 619   0.0000       2.661485        72.4227 
 620   0.0000       2.662266        72.4439 
 621   0.0000       2.674732        72.7832 
 622   0.0000       2.683246        73.0148 
 623   0.0000       2.688531        73.1587 
 624   0.0000       2.694984        73.3343 
 625   0.0000       2.696397        73.3727 
 626   0.0000       2.700209        73.4764 
 627   0.0000       2.702867        73.5488 
 628   0.0000       2.708955        73.7144 
 629   0.0000       2.713134        73.8281 
 630   0.0000       2.717559        73.9485 
 631   0.0000       2.720864        74.0385 
 632   0.0000       2.725616        74.1678 
 633   0.0000       2.729963        74.2861 
 634   0.0000       2.740948        74.5850 
 635   0.0000       2.748494        74.7903 
 636   0.0000       2.750515        74.8453 
 637   0.0000       2.755574        74.9830 
 638   0.0000       2.762986        75.1847 
 639   0.0000       2.767592        75.3100 
 640   0.0000       2.773300        75.4653 
 641   0.0000       2.786762        75.8317 
 642   0.0000       2.790467        75.9325 
 643   0.0000       2.793675        76.0198 
 644   0.0000       2.804753        76.3212 
 645   0.0000       2.806695        76.3741 
 646   0.0000       2.811573        76.5068 
 647   0.0000       2.821567        76.7787 
 648   0.0000       2.826353        76.9090 
 649   0.0000       2.830511        77.0221 
 650   0.0000       2.839469        77.2659 
 651   0.0000       2.841838        77.3303 
 652   0.0000       2.846344        77.4530 
 653   0.0000       2.851012        77.5800 
 654   0.0000       2.856062        77.7174 
 655   0.0000       2.862212        77.8847 
 656   0.0000       2.867510        78.0289 
 657   0.0000       2.877350        78.2967 
 658   0.0000       2.886361        78.5419 
 659   0.0000       2.893096        78.7251 
 660   0.0000       2.895784        78.7983 
 661   0.0000       2.900315        78.9216 
 662   0.0000       2.901119        78.9435 
 663   0.0000       2.904145        79.0258 
 664   0.0000       2.909270        79.1653 
 665   0.0000       2.921427        79.4961 
 666   0.0000       2.923054        79.5403 
 667   0.0000       2.924893        79.5904 
 668   0.0000       2.935126        79.8688 
 669   0.0000       2.937004        79.9200 
 670   0.0000       2.947650        80.2096 
 671   0.0000       2.954360        80.3922 
 672   0.0000       2.958865        80.5148 
 673   0.0000       2.966583        80.7248 
 674   0.0000       2.972366        80.8822 
 675   0.0000       2.978304        81.0438 
 676   0.0000       2.983391        81.1822 
 677   0.0000       2.985914        81.2508 
 678   0.0000       2.990963        81.3882 
 679   0.0000       2.995448        81.5103 
 680   0.0000       2.998569        81.5952 
 681   0.0000       3.003520        81.7299 
 682   0.0000       3.004802        81.7648 
 683   0.0000       3.006946        81.8232 
 684   0.0000       3.012375        81.9709 
 685   0.0000       3.019711        82.1705 
 686   0.0000       3.024763        82.3080 
 687   0.0000       3.036766        82.6346 
 688   0.0000       3.037890        82.6652 
 689   0.0000       3.041982        82.7765 
 690   0.0000       3.045210        82.8644 
 691   0.0000       3.050803        83.0166 
 692   0.0000       3.061061        83.2957 
 693   0.0000       3.063644        83.3660 
 694   0.0000       3.070086        83.5413 
 695   0.0000       3.075482        83.6881 
 696   0.0000       3.085241        83.9537 
 697   0.0000       3.094359        84.2018 
 698   0.0000       3.099634        84.3453 
 699   0.0000       3.105908        84.5161 
 700   0.0000       3.110600        84.6437 
 701   0.0000       3.120320        84.9082 
 702   0.0000       3.126290        85.0707 
 703   0.0000       3.129737        85.1645 
 704   0.0000       3.135011        85.3080 
 705   0.0000       3.140942        85.4694 
 706   0.0000       3.144680        85.5711 
 707   0.0000       3.151033        85.7440 
 708   0.0000       3.156205        85.8847 
 709   0.0000       3.156994        85.9062 
 710   0.0000       3.162705        86.0616 
 711   0.0000       3.166661        86.1692 
 712   0.0000       3.176632        86.4406 
 713   0.0000       3.179807        86.5270 
 714   0.0000       3.185061        86.6699 
[...]
 114   8.544     145.1   0.008596   0.006729  -6.134359  -5.096714     0.03 (  50->  73)    0.03 (  56->  76)    0.02 (  67->  81)
 115   8.555     144.9   0.027845   0.022508  -4.366778  -4.633939     0.07 (  68->  76)    0.05 (  66->  76)    0.03 (  62->  75)
 116   8.563     144.8   0.008174   0.008966  12.357575  13.039688     0.06 (  69->  93)    0.05 (  59->  75)    0.04 (  63->  76)
 117   8.580     144.5   0.217193   0.196081  41.598731  36.307663     0.08 (  63->  77)    0.04 (  50->  73)    0.04 (  50->  72)
 118   8.599     144.2   0.060798   0.057224   2.207270   1.842197     0.12 (  69->  94)    0.07 (  69->  95)    0.04 (  69->  93)
 119   8.604     144.1   0.007237   0.006211  -34.079085  -31.799133     0.11 (  65->  85)    0.10 (  64->  74)    0.09 (  64->  85)
 120   8.614     143.9   0.027519   0.025161  21.603256  21.604765     0.09 (  62->  76)    0.04 (  47->  72)    0.03 (  49->  73)
 121   8.645     143.4   0.036377   0.032112  -6.860151  -6.586542     0.16 (  71->  78)    0.09 (  70->  78)    0.03 (  69->  84)
 122   8.650     143.3   0.047964   0.044898  11.122846  10.613218     0.06 (  61->  73)    0.05 (  65->  86)    0.05 (  68->  76)
 123   8.662     143.1   0.011497   0.010502  -1.743849  -1.597779     0.06 (  59->  73)    0.04 (  61->  74)    0.04 (  68->  77)
 124   8.678     142.9   0.004598   0.004162  17.676032  16.068634     0.11 (  68->  76)    0.09 (  68->  77)    0.04 (  71->  97)
 125   8.687     142.7   0.017476   0.015111  13.044151  12.188192     0.10 (  47->  72)    0.04 (  65->  79)    0.03 (  44->  72)
 126   8.714     142.3   0.013761   0.011895  -18.876244  -17.655971     0.06 (  68->  77)    0.05 (  57->  72)    0.05 (  47->  72)
 127   8.724     142.1   0.017578   0.016946  -7.106216  -6.821580     0.08 (  71->  78)    0.04 (  70->  78)    0.03 (  65->  88)
 128   8.728     142.1   0.017669   0.017662  -23.201216  -23.306079     0.07 (  61->  73)    0.04 (  57->  76)    0.03 (  61->  74)
 129   8.749     141.7   0.003862   0.003324   5.670697   5.089656     0.04 (  65->  74)    0.04 (  64->  73)    0.03 (  64->  86)
 130   8.751     141.7   0.018679   0.017468  -21.524902  -20.113568     0.23 (  68->  76)    0.10 (  68->  77)    0.04 (  68->  94)
 131   8.763     141.5   0.001870   0.001815  -6.047801  -5.869467     0.07 (  64->  84)    0.06 (  64->  86)    0.04 (  64->  73)
 132   8.782     141.2   0.000941   0.000667  -2.230969  -1.507552     0.12 (  69->  95)    0.05 (  43->  72)    0.04 (  69->  78)
 133   8.790     141.1   0.011414   0.011200  -13.057803  -11.917092     0.05 (  70->  80)    0.04 (  69->  95)    0.04 (  57->  76)
 134   8.803     140.8   0.004936   0.004177  -5.456239  -5.039670     0.07 (  69->  95)    0.06 (  69->  78)    0.04 (  69->  84)
 135   8.815     140.7   0.033630   0.028703  -20.237282  -18.248892     0.06 (  70->  98)    0.05 (  71->  99)    0.05 (  43->  72)
 136   8.830     140.4   0.010411   0.009892   6.933373   7.445006     0.05 (  44->  72)    0.04 (  43->  72)    0.03 (  70->  98)
 137   8.833     140.4   0.027984   0.025872  20.512272  19.101468     0.07 (  69->  78)    0.07 (  70->  98)    0.03 (  71->  97)
 138   8.846     140.2   0.021406   0.020293  11.036004  11.199264     0.07 (  65->  87)    0.05 (  65->  88)    0.03 (  65->  89)
 139   8.861     139.9   0.025548   0.022682  24.579937  21.451857     0.09 (  48->  72)    0.09 (  69->  78)    0.06 (  48->  73)
 140   8.876     139.7   0.022403   0.020116  -38.664398  -37.260651     0.06 (  70->  98)    0.03 (  61->  77)    0.03 (  69->  97)
 141   8.879     139.6   0.129095   0.117305  -89.371533  -87.097637     0.05 (  63->  79)    0.05 (  66->  81)    0.05 (  57->  72)
 142   8.901     139.3   0.037565   0.034414  -1.752724  -0.180425     0.05 (  71-> 102)    0.05 (  60->  75)    0.04 (  58->  75)
 143   8.909     139.2   0.052040   0.045011  17.523250  16.239234     0.05 (  69->  78)    0.04 (  48->  72)    0.03 (  70->  96)
 144   8.918     139.0   0.004738   0.004977  -6.282458  -6.193497     0.11 (  58->  73)    0.10 (  64->  84)    0.05 (  60->  76)
 145   8.936     138.7   0.020954   0.018952  11.776909  10.828243     0.07 (  58->  73)    0.05 (  57->  76)    0.04 (  48->  72)
 146   8.953     138.5   0.015307   0.014390  -5.775028  -4.584596     0.07 (  63->  83)    0.05 (  69->  97)    0.03 (  71-> 100)
 147   8.965     138.3   0.005113   0.004809  12.552175  12.270854     0.06 (  58->  73)    0.03 (  71-> 102)    0.03 (  48->  72)
 148   8.974     138.2   0.018645   0.017555  -31.319033  -30.505748     0.06 (  69->  78)    0.04 (  62->  80)    0.03 (  71->  97)
 149   8.986     138.0   0.011804   0.011698  23.622008  23.909588     0.06 (  69->  78)    0.05 (  60->  79)    0.03 (  55->  76)
 150   8.994     137.9   0.010234   0.009178  13.276022  11.418546     0.07 (  69->  78)    0.04 (  48->  72)    0.03 (  71-> 102)
 151   9.000     137.8   0.013135   0.011994  -6.317185  -7.089862     0.07 (  69->  97)    0.05 (  63->  74)    0.03 (  71-> 101)
 152   9.020     137.5   0.029869   0.026685  -0.901568  -0.700282     0.03 (  60->  79)    0.02 (  66->  77)    0.02 (  43->  72)
 153   9.032     137.3   0.041987   0.040155  -65.733022  -64.902454     0.04 (  43->  72)    0.03 (  61->  77)    0.02 (  54->  72)
 154   9.065     136.8   0.009497   0.008792  14.345275  14.479779     0.08 (  69->  97)    0.04 (  63->  79)    0.04 (  71-> 101)
 155   9.067     136.7   0.050731   0.047740  30.693144  29.433853     0.04 (  63->  79)    0.03 (  67->  74)    0.03 (  59->  74)
 156   9.087     136.4   0.027510   0.025184  -21.572783  -19.948005     0.08 (  69->  97)    0.05 (  69->  84)    0.03 (  70-> 101)
 157   9.096     136.3   0.004505   0.004327   9.464835  11.282624     0.14 (  64->  86)    0.05 (  64->  87)    0.04 (  64->  85)
 158   9.105     136.2   0.022564   0.022071  -0.638327  -1.083397     0.04 (  64->  85)    0.03 (  65->  86)    0.03 (  64->  86)
 159   9.116     136.0   0.016792   0.014203  -17.545415  -15.715526     0.18 (  63->  80)    0.07 (  63->  77)    0.05 (  62->  74)
 160   9.130     135.8   0.018945   0.016984   9.217335   6.537710     0.07 (  61->  77)    0.05 (  68->  79)    0.05 (  61->  79)
 161   9.147     135.5   0.015577   0.013303  48.198839  42.330746     0.09 (  68->  79)    0.06 (  61->  78)    0.03 (  54->  74)
 162   9.159     135.4   0.054060   0.046922  76.216547  70.416454     0.06 (  68->  79)    0.04 (  63->  75)    0.03 (  67->  75)
 163   9.182     135.0   0.008000   0.007711  -18.678053  -18.165318     0.04 (  70->  81)    0.03 (  67->  87)    0.02 (  57->  76)
 164   9.196     134.8   0.011230   0.011299  -17.277511  -17.666194     0.18 (  68->  98)    0.02 (  67->  87)    0.02 (  67->  90)
 165   9.210     134.6   0.002743   0.002401   1.272551   1.568381     0.17 (  53->  78)    0.03 (  60->  76)    0.03 (  42->  72)
 166   9.219     134.5   0.020334   0.019684  10.765868  11.037047     0.04 (  70->  81)    0.03 (  56->  76)    0.03 (  66->  76)
 167   9.236     134.2   0.008565   0.007574  -3.261636  -1.428589     0.05 (  68->  98)    0.05 (  53->  78)    0.04 (  59->  75)
 168   9.241     134.2   0.006766   0.005770   4.802269   3.976458     0.40 (  53->  78)    0.03 (  64->  78)    0.03 (  55->  77)
 169   9.247     134.1   0.005509   0.004611  -10.543682  -8.248216     0.07 (  61->  78)    0.07 (  52->  76)    0.06 (  55->  80)
 170   9.248     134.1   0.010597   0.009248  10.289344   9.656686     0.08 (  61->  78)    0.04 (  67->  78)    0.03 (  52->  76)
 171   9.263     133.8   0.020267   0.018020  -29.429115  -28.841837     0.05 (  63->  83)    0.05 (  71-> 100)    0.03 (  68->  98)
 172   9.292     133.4   0.038473   0.033685  20.858950  19.660348     0.04 (  63->  83)    0.04 (  71-> 101)    0.04 (  54->  75)
 173   9.300     133.3   0.011489   0.011563  12.385638  12.464597     0.03 (  51->  76)    0.03 (  51->  74)    0.02 (  55->  76)
 174   9.308     133.2   0.003025   0.002299  -8.879836  -8.059271     0.04 (  51->  76)    0.03 (  69->  85)    0.03 (  54->  75)
 175   9.329     132.9   0.010585   0.008436  32.819967  29.797492     0.04 (  54->  75)    0.04 (  47->  74)    0.04 (  36->  72)
 176   9.337     132.8   0.005107   0.004437  -20.306537  -17.608450     0.05 (  70->  81)    0.05 (  63->  81)    0.03 (  66->  85)
 177   9.346     132.7   0.012452   0.010241  -51.082004  -46.539729     0.06 (  47->  74)    0.06 (  36->  72)    0.05 (  47->  73)
 178   9.371     132.3   0.027527   0.026040  -17.449890  -15.999652     0.11 (  61->  78)    0.04 (  39->  72)    0.04 (  54->  74)
 179   9.388     132.1   0.010619   0.009327  -26.760942  -25.082621     0.07 (  69-> 102)    0.05 (  58->  77)    0.04 (  58->  79)
 180   9.403     131.9   0.022635   0.021590   8.869691   9.688547     0.14 (  69-> 102)    0.04 (  63->  81)    0.02 (  68->  84)
 181   9.430     131.5   0.060885   0.055904  11.694651  10.974160     0.05 (  61->  77)    0.04 (  61->  85)    0.03 (  67->  84)
 182   9.438     131.4   0.006651   0.006087  19.352029  18.504029     0.06 (  68->  84)    0.04 (  59->  74)    0.03 (  54->  75)
 183   9.451     131.2   0.002485   0.002248   2.903600   2.826167     0.23 (  64->  76)    0.06 (  64->  74)    0.05 (  65->  76)
 184   9.453     131.2   0.014555   0.012155   3.285528   2.146002     0.13 (  64->  76)    0.06 (  68->  84)    0.06 (  65->  76)
 185   9.479     130.8   0.043980   0.039196  -35.186480  -32.350403     0.03 (  71->  82)    0.03 (  61->  77)    0.03 (  71-> 103)
 186   9.487     130.7   0.009322   0.008434  19.485294  18.186690     0.04 (  67->  88)    0.04 (  61->  82)    0.03 (  61->  77)
 187   9.511     130.4   0.008720   0.007294   8.301345   9.632063     0.05 (  50->  72)    0.03 (  57->  76)    0.03 (  50->  74)
 188   9.520     130.2   0.043365   0.039299  -5.381771  -4.601292     0.03 (  69-> 100)    0.03 (  54->  74)    0.03 (  67->  88)
 189   9.537     130.0   0.008116   0.007476  -19.297175  -19.654348     0.11 (  61->  78)    0.04 (  59->  78)    0.03 (  67->  85)
 190   9.556     129.7   0.015826   0.014988  -3.315533  -3.678351     0.05 (  61->  78)    0.04 (  67->  88)    0.03 (  50->  72)
 191   9.558     129.7   0.031415   0.028650  79.073085  72.955215     0.07 (  69-> 101)    0.06 (  58->  77)    0.05 (  69-> 100)
 192   9.574     129.5   0.007223   0.006808  -17.289086  -17.306595     0.09 (  69-> 100)    0.08 (  69-> 101)    0.04 (  71->  82)
 193   9.585     129.3   0.015391   0.013728   9.418453   9.543438     0.28 (  49->  78)    0.09 (  51->  78)    0.06 (  50->  78)
 194   9.587     129.3   0.016984   0.012659  -10.150021  -8.859358     0.12 (  65->  80)    0.06 (  65->  81)    0.05 (  49->  78)
 195   9.598     129.2   0.015724   0.011726  -36.700310  -30.278505     0.05 (  67->  92)    0.05 (  71->  99)    0.04 (  69-> 101)
 196   9.607     129.1   0.017209   0.014429  -11.919742  -11.123049     0.09 (  46->  72)    0.05 (  46->  73)    0.03 (  49->  74)
 197   9.626     128.8   0.016089   0.013258  12.807651  11.768130     0.03 (  68-> 101)    0.03 (  66->  87)    0.03 (  69-> 100)
 198   9.633     128.7   0.016142   0.014253  -16.140067  -15.207903     0.03 (  68-> 101)    0.03 (  68-> 100)    0.03 (  67->  88)
 199   9.652     128.5   0.071800   0.064012  -0.368551  -0.568821     0.06 (  53->  75)    0.04 (  49->  75)    0.04 (  70->  82)
 200   9.659     128.4   0.022009   0.019472  -3.600372  -2.338180     0.05 (  71->  82)    0.04 (  68-> 100)    0.04 (  68-> 101)
 201   9.672     128.2   0.014772   0.012691   2.720849   2.258814     0.08 (  68->  80)    0.05 (  68->  79)    0.04 (  53->  72)
 202   9.697     127.9   0.050061   0.043005  18.882238  16.919616     0.03 (  67->  87)    0.02 (  68-> 100)    0.02 (  49->  75)
 203   9.706     127.7   0.052232   0.049098  -19.981572  -20.146550     0.06 (  68->  80)    0.05 (  71-> 103)    0.03 (  58->  74)
 204   9.710     127.7   0.004061   0.003713   3.165857   2.153278     0.07 (  60->  76)    0.04 (  65->  80)    0.03 (  46->  72)
 205   9.718     127.6   0.056607   0.054715  12.492646  11.889922     0.07 (  68->  80)    0.04 (  70->  82)    0.04 (  60->  79)
 206   9.740     127.3   0.035220   0.029565   4.297311   5.113712     0.04 (  49->  75)    0.03 (  64->  82)    0.03 (  58->  77)
 207   9.747     127.2   0.021221   0.017306   3.499663   2.914291     0.03 (  68-> 101)    0.03 (  71-> 104)    0.03 (  68-> 100)
 208   9.752     127.1   0.001034   0.000689  15.621909  12.179112     0.08 (  45->  72)    0.03 (  50->  72)    0.03 (  56->  76)
 209   9.760     127.0   0.007140   0.005716  -12.382611  -10.836856     0.04 (  53->  72)    0.04 (  53->  74)    0.03 (  60->  86)
 210   9.777     126.8   0.015272   0.013870  19.563238  18.265940     0.14 (  71->  82)    0.06 (  70->  83)    0.06 (  70->  82)
 211   9.784     126.7   0.002512   0.001803  -12.208886  -10.016129     0.04 (  61->  84)    0.04 (  64->  82)    0.02 (  68->  80)
 212   9.792     126.6   0.007726   0.006911  -11.142875  -10.227613     0.06 (  42->  73)    0.05 (  41->  72)    0.03 (  58->  74)
 213   9.800     126.5   0.007681   0.006732   9.935079   9.326106     0.06 (  71-> 103)    0.06 (  70->  83)    0.05 (  71->  83)
 214   9.811     126.4   0.027801   0.023759  12.091383  10.358415     0.05 (  70->  83)    0.05 (  71-> 103)    0.03 (  71->  83)
 215   9.820     126.3   0.006801   0.005756  -7.383945  -6.603563     0.06 (  60->  88)    0.05 (  70->  83)    0.05 (  60->  87)
 216   9.830     126.1   0.005846   0.005570  -18.489401  -19.109078     0.09 (  69->  82)    0.09 (  69-> 103)    0.08 (  68->  80)
 217   9.841     126.0   0.008078   0.006157  -5.893127  -4.866681     0.04 (  63->  74)    0.04 (  63->  75)    0.03 (  45->  72)
 218   9.853     125.8   0.011454   0.010712   8.760216   8.632767     0.09 (  68->  80)    0.04 (  71-> 102)    0.03 (  60->  78)
 219   9.869     125.6   0.008780   0.006589   2.602252   1.226623     0.07 (  71-> 102)    0.06 (  48->  82)    0.04 (  67->  92)
 220   9.873     125.6   0.010060   0.009995  -33.855702  -33.185987     0.06 (  68->  80)    0.05 (  69->  82)    0.03 (  49->  78)
 221   9.883     125.5   0.001163   0.000815  -5.687310  -4.691194     0.05 (  52->  72)    0.04 (  50->  72)    0.04 (  44->  73)
 222   9.885     125.4   0.011216   0.009618  18.800331  18.505721     0.03 (  71-> 108)    0.03 (  71-> 103)    0.02 (  58->  78)
 223   9.906     125.2   0.005079   0.003443  19.961643  16.883592     0.03 (  70->  86)    0.03 (  71->  86)    0.02 (  71->  85)
 224   9.910     125.1   0.000315   0.000274  -1.716949  -0.924658     0.04 (  39->  72)    0.04 (  40->  72)    0.03 (  63->  74)
 225   9.916     125.0   0.004569   0.003944   3.529133   3.497613     0.03 (  69-> 103)    0.02 (  52->  72)    0.02 (  62->  81)
 226   9.928     124.9   0.006767   0.004579   1.188649   1.393924     0.07 (  69-> 103)    0.05 (  58->  78)    0.04 (  60->  78)
 227   9.934     124.8   0.017379   0.021066  16.831433  18.791301     0.07 (  58->  77)    0.05 (  60->  87)    0.04 (  47->  75)
 228   9.947     124.6   0.005130   0.005287  -7.296771  -6.015994     0.06 (  58->  78)    0.06 (  60->  78)    0.05 (  69-> 103)
 229   9.954     124.6   0.009338   0.007431  14.664158  14.198839     0.09 (  71->  86)    0.05 (  45->  72)    0.03 (  58->  78)
 230   9.965     124.4   0.008638   0.008019  -1.639855  -1.594641     0.19 (  65->  81)    0.04 (  64->  81)    0.03 (  65->  79)
 231   9.985     124.2   0.005187   0.003938  -14.679964  -12.653600     0.03 (  69-> 103)    0.03 (  69->  82)    0.02 (  35->  72)
 232   9.996     124.0   0.003163   0.002073  14.586390  11.556228     0.09 (  62->  80)    0.08 (  62->  81)    0.07 (  67->  78)

sTD-DFT done

Total run time:       27.541 sec

           *** ORCA-CIS/TD-DFT FINISHED WITHOUT ERROR ***


-------------------------------------------------------------------------------
                          DFT DISPERSION CORRECTION                            
                                                                               
                              DFTD3 V3.1  Rev 1                                
                              USING zero damping                               
-------------------------------------------------------------------------------
The omegaB97X-D3 functional is recognized. Fit by Chai et al.
Active option DFTDOPT                   ...         3   

molecular C6(AA) [au] = 34381.109549 


            DFT-D V3
 parameters
 s6 scaling factor         :     1.0000 
 rs6 scaling factor        :     1.2810 
 s8 scaling factor         :     1.0000 
 rs8 scaling factor        :     1.0940 
 Damping factor alpha6     :    14.0000 
 Damping factor alpha8     :    16.0000 
 ad hoc parameters k1-k3   :    16.0000     1.3333    -4.0000 

 Edisp/kcal,au: -12.773145940899  -0.020355301563 
 E6   /kcal   :  -5.945486950 
 E8   /kcal   :  -6.827658991 
 % E8         :  53.453229321 

-------------------------   ----------------
Dispersion correction           -0.020355302
-------------------------   ----------------


-------------------------   --------------------
FINAL SINGLE POINT ENERGY     -2142.076970753656
-------------------------   --------------------


                            ***************************************
                            *     ORCA property calculations      *
                            ***************************************

                                    ---------------------
                                    Active property flags
                                    ---------------------
   (+) Dipole Moment
   (+) Quadrupole Moment


------------------------------------------------------------------------------
                       ORCA ELECTRIC PROPERTIES CALCULATION
------------------------------------------------------------------------------

Dipole Moment Calculation                       ... on
Quadrupole Moment Calculation                   ... on
Polarizability Calculation                      ... off
GBWName                                         ... total_job2.gbw
Electron density file                           ... total_job2.scfp.tmp

-------------
DIPOLE MOMENT
-------------
                                X             Y             Z
Electronic contribution:     10.58408      -0.88400       4.38196
Nuclear contribution   :    -12.21695       0.88886      -3.92533
                        -----------------------------------------
Total Dipole Moment    :     -1.63288       0.00486       0.45663
                        -----------------------------------------
Magnitude (a.u.)       :      1.69553
Magnitude (Debye)      :      4.30969


------------------------
QUADRUPOLE MOMENT (A.U.)
------------------------

                XX           YY           ZZ           XY           XZ           YZ
  NUC     22271.42521    437.77836   2632.42938   -639.20091  -2656.96075   -408.75723
  EL     -22375.49011   -589.93624  -2773.93706    626.25553   2659.22676    411.98193
  TOT      -104.06490   -152.15788   -141.50768    -12.94538      2.26601      3.22469

--------------------------------------------------------------------------
[[63778,1],6]: A high-performance Open MPI point-to-point messaging module
was unable to find any relevant network interfaces:

Module: OpenFabrics (openib)
  Host: cx1-105-9-2

Another transport will be used instead, although this may result in
lower performance.
--------------------------------------------------------------------------

Timings for individual modules:

Sum of individual times         ...      164.540 sec (=   2.742 min)
GTO integral calculation        ...        5.760 sec (=   0.096 min)   3.5 %
SCF iterations                  ...      128.379 sec (=   2.140 min)  78.0 %
CIS module                      ...       30.401 sec (=   0.507 min)  18.5 %



                             ****ORCA TERMINATED NORMALLY****
TOTAL RUN TIME: 0 days 0 hours 10 minutes 54 seconds 555 msec
