
                                 *****************
                                 * O   R   C   A *
                                 *****************

           --- An Ab Initio, DFT and Semiempirical electronic structure package ---

                  #######################################################
                  #                        -***-                        #
                  #  Department of molecular theory and spectroscopy    #
                  #              Directorship: Frank Neese              #
                  # Max Planck Institute for Chemical Energy Conversion #
                  #                  D-45470 Muelheim/Ruhr              #
                  #                       Germany                       #
                  #                                                     #
                  #                  All rights reserved                #
                  #                        -***-                        #
                  #######################################################


                         Program Version 4.0.0 -  RELEASE  -


 With contributions from (in alphabetic order):
   Daniel Aravena         : Magnetic Properties
   Michael Atanasov       : Ab Initio Ligand Field Theory
   Ute Becker             : Parallelization
   Martin Brehm           : Molecular dynamics
   Dmytro Bykov           : SCF Hessian
   Vijay G. Chilkuri      : MRCI spin determinant printing
   Dipayan Datta          : RHF DLPNO-CCSD density
   Achintya Kumar Dutta   : EOM-CC, STEOM-CC
   Dmitry Ganyushin       : Spin-Orbit,Spin-Spin,Magnetic field MRCI
   Yang Guo               : DLPNO-NEVPT2, CIM, IAO-localization
   Andreas Hansen         : Spin unrestricted coupled pair/coupled cluster methods
   Lee Huntington         : MR-EOM, pCC
   Robert Izsak           : Overlap fitted RIJCOSX, COSX-SCS-MP3, EOM
   Christian Kollmar      : KDIIS, OOCD, Brueckner-CCSD(T), CCSD density
   Simone Kossmann        : Meta GGA functionals, TD-DFT gradient, OOMP2, MP2 Hessian
   Martin Krupicka        : AUTO-CI
   Dagmar Lenk            : GEPOL surface
   Dimitrios Liakos       : Extrapolation schemes; parallel MDCI
   Dimitrios Manganas     : ROCIS; embedding schemes
   Dimitrios Pantazis     : SARC Basis sets
   Taras Petrenko         : DFT Hessian,TD-DFT gradient, ASA, ECA, R-Raman, ABS, FL, XAS/XES, NRVS
   Peter Pinski           : DLPNO-MP2
   Christoph Reimann      : Effective Core Potentials
   Marius Retegan         : Local ZFS, SOC
   Christoph Riplinger    : Optimizer, TS searches, QM/MM, DLPNO-CCSD(T), (RO)-DLPNO pert. Triples
   Tobias Risthaus        : Range-separated hybrids, TD-DFT gradient, RPA, STAB
   Michael Roemelt        : Restricted open shell CIS
   Masaaki Saitow         : Open-shell DLPNO
   Barbara Sandhoefer     : DKH picture change effects
   Kantharuban Sivalingam : CASSCF convergence, NEVPT2, FIC-MRCI
   Georgi Stoychev        : AutoAux
   Boris Wezisla          : Elementary symmetry handling
   Frank Wennmohs         : Technical directorship


 We gratefully acknowledge several colleagues who have allowed us to
 interface, adapt or use parts of their codes:
   Stefan Grimme, W. Hujo, H. Kruse,             : VdW corrections, initial TS optimization,
                  C. Bannwarth                     DFT functionals, gCP, sTDA/sTD-DF
   Ed Valeev                                     : LibInt (2-el integral package), F12 methods
   Garnet Chan, S. Sharma, J. Yang, R. Olivares  : DMRG
   Ulf Ekstrom                                   : XCFun DFT Library
   Mihaly Kallay                                 : mrcc  (arbitrary order and MRCC methods)
   Jiri Pittner, Ondrej Demel                    : Mk-CCSD
   Frank Weinhold                                : gennbo (NPA and NBO analysis)
   Christopher J. Cramer and Donald G. Truhlar   : smd solvation model


 Your calculation uses the libint2 library for the computation of 2-el integrals
 For citations please refer to: http://libint.valeyev.net

 This ORCA versions uses:
   CBLAS   interface :  Fast vector & matrix operations
   LAPACKE interface :  Fast linear algebra routines
   SCALAPACK package :  Parallel linear algebra routines


Your calculation utilizes the atom-pairwise dispersion correction
with the zero-damping scheme (D30)
Cite in your paper:
S.Grimme, J.Antony, S.Ehrlich and H.Krieg, J.Chem.Phys., 132, (2010), 154104 
   

XCFun DFT library Copyright 2009-2010 Ulf Ekstrom and contributors.
See http://admol.org/xcfun for more information. This is free soft-
ware; see the source code for copying conditions. There is ABSOLUTELY
NO WARRANTY; not even for MERCHANTABILITY or FITNESS FOR A PARTICULAR
PURPOSE. For details see the documentation. Scientific users of this 
library should cite U. Ekstrom, L. Visscher, R. Bast, A. J. Thorvald-
sen and K. Ruud; J.Chem.Theor.Comp. 2010, DOI: 10.1021/ct100117s
XCFun Version 0.99 
Your calculation utilizes the basis: def2-TZVP
   F. Weigend and R. Ahlrichs, Phys. Chem. Chem. Phys. 7, 3297 (2005).

Your calculation utilizes the auxiliary basis: def2/J
   F. Weigend, Phys. Chem. Chem. Phys. 8, 1057 (2006).

================================================================================
                                        WARNINGS
                       Please study these warnings very carefully!
================================================================================

Warning: TCutStore was < 0. Adjusted to Thresh (uncritical)
INFO   : Checking CIS options ...

WARNING: CIS/ROCIS methods need fully converged wavefunctions
  ===> : Setting SCFConvForced true
         You can overwrite this default with %scf ConvForced false 


INFO   : the flag for use of LIBINT has been found!

Your calculation utilizes the atom-pairwise dispersion correction
with the zero-damping scheme (D30)
Cite in your paper:
S.Grimme, J.Antony, S.Ehrlich and H.Krieg, J.Chem.Phys., 132, (2010), 154104 
   

XCFun DFT library Copyright 2009-2010 Ulf Ekstrom and contributors.
See http://admol.org/xcfun for more information. This is free soft-
ware; see the source code for copying conditions. There is ABSOLUTELY
NO WARRANTY; not even for MERCHANTABILITY or FITNESS FOR A PARTICULAR
PURPOSE. For details see the documentation. Scientific users of this 
library should cite U. Ekstrom, L. Visscher, R. Bast, A. J. Thorvald-
sen and K. Ruud; J.Chem.Theor.Comp. 2010, DOI: 10.1021/ct100117s
XCFun Version 0.99 
Your calculation utilizes the basis: def2-TZVP
   F. Weigend and R. Ahlrichs, Phys. Chem. Chem. Phys. 7, 3297 (2005).

Your calculation utilizes the auxiliary basis: def2/J
   F. Weigend, Phys. Chem. Chem. Phys. 8, 1057 (2006).

================================================================================
                                        WARNINGS
                       Please study these warnings very carefully!
================================================================================

INFO   : Checking CIS options ...

INFO   : the flag for use of LIBINT has been found!

================================================================================
                                       INPUT FILE
================================================================================
NAME = total.inp
|  1> # 
|  2> !wB97X-D3 def2-TZVP def2/J RIJCOSX Grid5 FinalGrid6 TightSCF
|  3> %pal 
|  4>  nprocs 24
|  5> end
|  6> %tddft
|  7>   Mode sTDDFT
|  8>   nroots 2
|  9>   Ethresh 10.0
| 10>   maxcore 5000
| 11>   triplets true
| 12> end
| 13> * xyz 0 1 
| 14> C 8.62821636 2.47071437 2.42577004
| 15> C 7.85784947 1.61089210 1.64721873
| 16> C 8.48054367 0.86812431 0.62592118
| 17> C 9.87934722 1.03605249 0.42411815
| 18> C 10.65924728 1.89658571 1.21176785
| 19> C 10.01154545 2.61060721 2.21665468
| 20> C 8.02752110 -0.07963345 -0.38067360
| 21> C 9.18112980 -0.41788992 -1.14914576
| 22> N 10.28054716 0.24727867 -0.63995750
| 23> C 9.14110773 -1.27957880 -2.25510704
| 24> C 7.90132398 -1.80636451 -2.61126038
| 25> C 6.75029543 -1.49202103 -1.87844047
| 26> C 6.77763696 -0.64952921 -0.75007044
| 27> H 5.80289644 -1.93491491 -2.17723702
| 28> H 11.22148847 0.19167927 -1.00990331
| 29> H 7.82293068 -2.47252091 -3.46565681
| 30> H 6.79204879 1.51592795 1.83292365
| 31> H 11.72683109 2.00384342 1.03920712
| 32> H 10.58245092 3.28712985 2.84718413
| 33> H 8.15246527 3.04503629 3.21594022
| 34> S 0.63704817 -0.40041435 -0.28130086
| 35> C -0.61815648 -0.08935632 0.94206341
| 36> N -0.11395144 0.18057565 2.14007615
| 37> N 1.25053524 0.16327998 2.18492759
| 38> C 1.81360505 -0.12098078 1.01894278
| 39> C 3.24222016 -0.20132612 0.79594696
| 40> N 4.15893271 -0.00848223 1.73427124
| 41> N 5.43988280 -0.13769164 1.27451141
| 42> C 5.52961191 -0.42355790 -0.01466414
| 43> S 3.93100449 -0.57785748 -0.79277092
| 44> C -6.78349983 -1.59074343 1.85082021
| 45> C -7.13196012 -0.59900280 0.91295434
| 46> C -8.39852607 0.01162960 0.99798760
| 47> C -9.29031582 -0.36565137 1.99955475
| 48> C -8.93753379 -1.34416389 2.93202598
| 49> C -7.68201661 -1.95147279 2.85250252
| 50> N -6.22107250 -0.22336647 -0.11386548
| 51> C -6.72180099 0.11886809 -1.40083106
| 52> C -7.84679708 -0.54663860 -1.92624526
| 53> C -8.33889439 -0.20194545 -3.18310418
| 54> C -7.72060721 0.79813136 -3.93749250
| 55> C -6.60399540 1.46003987 -3.42117013
| 56> C -6.10624670 1.13205707 -2.16202035
| 57> C -4.83299534 -0.19123206 0.14232488
| 58> C -4.34407997 0.12024704 1.43124665
| 59> C -2.97943554 0.14878320 1.67961789
| 60> C -2.04712179 -0.12737169 0.65658509
| 61> C -2.53993851 -0.43552997 -0.62734310
| 62> C -3.90379325 -0.47027177 -0.88459876
| 63> H -5.04307172 0.35132379 2.22992736
| 64> H -2.61552667 0.39800516 2.67240221
| 65> H -1.84002669 -0.66196733 -1.42911692
| 66> H -4.25928299 -0.72581850 -1.87849125
| 67> H -8.32595571 -1.33250431 -1.34923783
| 68> H -9.20532867 -0.72439973 -3.58003474
| 69> H -8.10636248 1.06042681 -4.91822976
| 70> H -6.12304101 2.24540383 -3.99828725
| 71> H -5.24691737 1.66181685 -1.76061480
| 72> H -8.67482229 0.78098109 0.28251763
| 73> H -10.26348502 0.11470344 2.05800999
| 74> H -7.40359816 -2.71946095 3.56927637
| 75> H -5.81462647 -2.07790295 1.78630328
| 76> H 10.04010617 -1.51711631 -2.81682824
| 77> H -9.63518588 -1.63166450 3.71309780
| 78> *
| 79> $new_job
| 80> # 
| 81> !wB97X-D3 def2-TZVP def2/J RIJCOSX Grid5 FinalGrid6 TightSCF
| 82> %pal 
| 83>  nprocs 24
| 84> end
| 85> %elprop
| 86>    dipole     true
| 87>    quadrupole true
| 88> end
| 89> %tddft
| 90>   Mode sTDDFT
| 91>   nroots 2
| 92>   Ethresh 10.0
| 93>   maxcore 5000
| 94> end
| 95> * xyz 0 1 
| 96> C 8.62821636 2.47071437 2.42577004
| 97> C 7.85784947 1.61089210 1.64721873
| 98> C 8.48054367 0.86812431 0.62592118
| 99> C 9.87934722 1.03605249 0.42411815
|100> C 10.65924728 1.89658571 1.21176785
|101> C 10.01154545 2.61060721 2.21665468
|102> C 8.02752110 -0.07963345 -0.38067360
|103> C 9.18112980 -0.41788992 -1.14914576
|104> N 10.28054716 0.24727867 -0.63995750
|105> C 9.14110773 -1.27957880 -2.25510704
|106> C 7.90132398 -1.80636451 -2.61126038
|107> C 6.75029543 -1.49202103 -1.87844047
|108> C 6.77763696 -0.64952921 -0.75007044
|109> H 5.80289644 -1.93491491 -2.17723702
|110> H 11.22148847 0.19167927 -1.00990331
|111> H 7.82293068 -2.47252091 -3.46565681
|112> H 6.79204879 1.51592795 1.83292365
|113> H 11.72683109 2.00384342 1.03920712
|114> H 10.58245092 3.28712985 2.84718413
|115> H 8.15246527 3.04503629 3.21594022
|116> S 0.63704817 -0.40041435 -0.28130086
|117> C -0.61815648 -0.08935632 0.94206341
|118> N -0.11395144 0.18057565 2.14007615
|119> N 1.25053524 0.16327998 2.18492759
|120> C 1.81360505 -0.12098078 1.01894278
|121> C 3.24222016 -0.20132612 0.79594696
|122> N 4.15893271 -0.00848223 1.73427124
|123> N 5.43988280 -0.13769164 1.27451141
|124> C 5.52961191 -0.42355790 -0.01466414
|125> S 3.93100449 -0.57785748 -0.79277092
|126> C -6.78349983 -1.59074343 1.85082021
|127> C -7.13196012 -0.59900280 0.91295434
|128> C -8.39852607 0.01162960 0.99798760
|129> C -9.29031582 -0.36565137 1.99955475
|130> C -8.93753379 -1.34416389 2.93202598
|131> C -7.68201661 -1.95147279 2.85250252
|132> N -6.22107250 -0.22336647 -0.11386548
|133> C -6.72180099 0.11886809 -1.40083106
|134> C -7.84679708 -0.54663860 -1.92624526
|135> C -8.33889439 -0.20194545 -3.18310418
|136> C -7.72060721 0.79813136 -3.93749250
|137> C -6.60399540 1.46003987 -3.42117013
|138> C -6.10624670 1.13205707 -2.16202035
|139> C -4.83299534 -0.19123206 0.14232488
|140> C -4.34407997 0.12024704 1.43124665
|141> C -2.97943554 0.14878320 1.67961789
|142> C -2.04712179 -0.12737169 0.65658509
|143> C -2.53993851 -0.43552997 -0.62734310
|144> C -3.90379325 -0.47027177 -0.88459876
|145> H -5.04307172 0.35132379 2.22992736
|146> H -2.61552667 0.39800516 2.67240221
|147> H -1.84002669 -0.66196733 -1.42911692
|148> H -4.25928299 -0.72581850 -1.87849125
|149> H -8.32595571 -1.33250431 -1.34923783
|150> H -9.20532867 -0.72439973 -3.58003474
|151> H -8.10636248 1.06042681 -4.91822976
|152> H -6.12304101 2.24540383 -3.99828725
|153> H -5.24691737 1.66181685 -1.76061480
|154> H -8.67482229 0.78098109 0.28251763
|155> H -10.26348502 0.11470344 2.05800999
|156> H -7.40359816 -2.71946095 3.56927637
|157> H -5.81462647 -2.07790295 1.78630328
|158> H 10.04010617 -1.51711631 -2.81682824
|159> H -9.63518588 -1.63166450 3.71309780
|160> *
|161> 
|162>                          ****END OF INPUT****
================================================================================


                 $$$$$$$$$$$$$$$$$$$$$$$$$$$$$$$$$$$$$$$$$$$$$$ 
                 $ THERE ARE  2 JOBS TO BE PROCESSED THIS RUN $
                 $$$$$$$$$$$$$$$$$$$$$$$$$$$$$$$$$$$$$$$$$$$$$$ 




                 $$$$$$$$$$$$$$$$  JOB NUMBER  1 $$$$$$$$$$$$$$


                       ****************************
                       * Single Point Calculation *
                       ****************************

---------------------------------
CARTESIAN COORDINATES (ANGSTROEM)
---------------------------------
  C      8.628216    2.470714    2.425770
  C      7.857849    1.610892    1.647219
  C      8.480544    0.868124    0.625921
  C      9.879347    1.036052    0.424118
  C     10.659247    1.896586    1.211768
  C     10.011545    2.610607    2.216655
  C      8.027521   -0.079633   -0.380674
  C      9.181130   -0.417890   -1.149146
  N     10.280547    0.247279   -0.639957
  C      9.141108   -1.279579   -2.255107
  C      7.901324   -1.806365   -2.611260
  C      6.750295   -1.492021   -1.878440
  C      6.777637   -0.649529   -0.750070
  H      5.802896   -1.934915   -2.177237
  H     11.221488    0.191679   -1.009903
  H      7.822931   -2.472521   -3.465657
  H      6.792049    1.515928    1.832924
  H     11.726831    2.003843    1.039207
  H     10.582451    3.287130    2.847184
  H      8.152465    3.045036    3.215940
  S      0.637048   -0.400414   -0.281301
  C     -0.618156   -0.089356    0.942063
  N     -0.113951    0.180576    2.140076
  N      1.250535    0.163280    2.184928
  C      1.813605   -0.120981    1.018943
  C      3.242220   -0.201326    0.795947
  N      4.158933   -0.008482    1.734271
  N      5.439883   -0.137692    1.274511
  C      5.529612   -0.423558   -0.014664
  S      3.931004   -0.577857   -0.792771
  C     -6.783500   -1.590743    1.850820
  C     -7.131960   -0.599003    0.912954
  C     -8.398526    0.011630    0.997988
  C     -9.290316   -0.365651    1.999555
  C     -8.937534   -1.344164    2.932026
  C     -7.682017   -1.951473    2.852503
  N     -6.221072   -0.223366   -0.113865
  C     -6.721801    0.118868   -1.400831
  C     -7.846797   -0.546639   -1.926245
  C     -8.338894   -0.201945   -3.183104
  C     -7.720607    0.798131   -3.937492
  C     -6.603995    1.460040   -3.421170
  C     -6.106247    1.132057   -2.162020
  C     -4.832995   -0.191232    0.142325
  C     -4.344080    0.120247    1.431247
  C     -2.979436    0.148783    1.679618
  C     -2.047122   -0.127372    0.656585
  C     -2.539939   -0.435530   -0.627343
  C     -3.903793   -0.470272   -0.884599
  H     -5.043072    0.351324    2.229927
  H     -2.615527    0.398005    2.672402
  H     -1.840027   -0.661967   -1.429117
  H     -4.259283   -0.725818   -1.878491
  H     -8.325956   -1.332504   -1.349238
  H     -9.205329   -0.724400   -3.580035
  H     -8.106362    1.060427   -4.918230
  H     -6.123041    2.245404   -3.998287
  H     -5.246917    1.661817   -1.760615
  H     -8.674822    0.780981    0.282518
  H    -10.263485    0.114703    2.058010
  H     -7.403598   -2.719461    3.569276
  H     -5.814626   -2.077903    1.786303
  H     10.040106   -1.517116   -2.816828
  H     -9.635186   -1.631665    3.713098

----------------------------
CARTESIAN COORDINATES (A.U.)
----------------------------
  NO LB      ZA    FRAG     MASS         X           Y           Z
   0 C     6.0000    0    12.011   16.304966    4.668974    4.584041
   1 C     6.0000    0    12.011   14.849183    3.044145    3.112792
   2 C     6.0000    0    12.011   16.025905    1.640517    1.182820
   3 C     6.0000    0    12.011   18.669261    1.957855    0.801467
   4 C     6.0000    0    12.011   20.143058    3.584028    2.289909
   5 C     6.0000    0    12.011   18.919079    4.933333    4.188870
   6 C     6.0000    0    12.011   15.169816   -0.150485   -0.719369
   7 C     6.0000    0    12.011   17.349821   -0.789698   -2.171571
   8 N     7.0000    0    14.007   19.427419    0.467289   -1.209344
   9 C     6.0000    0    12.011   17.274190   -2.418053   -4.261535
  10 C     6.0000    0    12.011   14.931338   -3.413534   -4.934567
  11 C     6.0000    0    12.011   12.756210   -2.819511   -3.549738
  12 C     6.0000    0    12.011   12.807878   -1.227432   -1.417428
  13 H     1.0000    0     1.008   10.965885   -3.656459   -4.114382
  14 H     1.0000    0     1.008   21.205540    0.362221   -1.908441
  15 H     1.0000    0     1.008   14.783197   -4.672387   -6.549142
  16 H     1.0000    0     1.008   12.835112    2.864689    3.463724
  17 H     1.0000    0     1.008   22.160499    3.786715    1.963817
  18 H     1.0000    0     1.008   19.997934    6.211775    5.380398
  19 H     1.0000    0     1.008   15.405927    5.754285    6.077246
  20 S    16.0000    0    32.060    1.203847   -0.756673   -0.531582
  21 C     6.0000    0    12.011   -1.168146   -0.168859    1.780242
  22 N     7.0000    0    14.007   -0.215337    0.341239    4.044158
  23 N     7.0000    0    14.007    2.363169    0.308554    4.128915
  24 C     6.0000    0    12.011    3.427217   -0.228621    1.925523
  25 C     6.0000    0    12.011    6.126908   -0.380451    1.504122
  26 N     7.0000    0    14.007    7.859244   -0.016029    3.277298
  27 N     7.0000    0    14.007   10.279889   -0.260199    2.408478
  28 C     6.0000    0    12.011   10.449452   -0.800408   -0.027711
  29 S    16.0000    0    32.060    7.428522   -1.091992   -1.498120
  30 C     6.0000    0    12.011  -12.818957   -3.006069    3.497543
  31 C     6.0000    0    12.011  -13.477451   -1.131951    1.725234
  32 C     6.0000    0    12.011  -15.870914    0.021977    1.885923
  33 C     6.0000    0    12.011  -17.556153   -0.690981    3.778611
  34 C     6.0000    0    12.011  -16.889491   -2.540102    5.540726
  35 C     6.0000    0    12.011  -14.516908   -3.687749    5.390449
  36 N     7.0000    0    14.007  -11.756123   -0.422101   -0.215175
  37 C     6.0000    0    12.011  -12.702363    0.224628   -2.647187
  38 C     6.0000    0    12.011  -14.828298   -1.032997   -3.640076
  39 C     6.0000    0    12.011  -15.758227   -0.381622   -6.015195
  40 C     6.0000    0    12.011  -14.589833    1.508250   -7.440782
  41 C     6.0000    0    12.011  -12.479743    2.759075   -6.465075
  42 C     6.0000    0    12.011  -11.539134    2.139278   -4.085626
  43 C     6.0000    0    12.011   -9.133038   -0.361376    0.268955
  44 C     6.0000    0    12.011   -8.209121    0.227234    2.704664
  45 C     6.0000    0    12.011   -5.630317    0.281160    3.174018
  46 C     6.0000    0    12.011   -3.868500   -0.240698    1.240766
  47 C     6.0000    0    12.011   -4.799788   -0.823032   -1.185507
  48 C     6.0000    0    12.011   -7.377100   -0.888685   -1.671649
  49 H     1.0000    0     1.008   -9.530024    0.663906    4.213952
  50 H     1.0000    0     1.008   -4.942629    0.752121    5.050108
  51 H     1.0000    0     1.008   -3.477147   -1.250937   -2.700640
  52 H     1.0000    0     1.008   -8.048878   -1.371598   -3.549834
  53 H     1.0000    0     1.008  -15.733776   -2.518068   -2.549690
  54 H     1.0000    0     1.008  -17.395550   -1.368917   -6.765285
  55 H     1.0000    0     1.008  -15.318805    2.003916   -9.294107
  56 H     1.0000    0     1.008  -11.570871    4.243198   -7.555668
  57 H     1.0000    0     1.008   -9.915237    3.140379   -3.327080
  58 H     1.0000    0     1.008  -16.393038    1.475840    0.533881
  59 H     1.0000    0     1.008  -19.395176    0.216758    3.889075
  60 H     1.0000    0     1.008  -13.990773   -5.139036    6.744955
  61 H     1.0000    0     1.008  -10.988052   -3.926668    3.375624
  62 H     1.0000    0     1.008   18.973051   -2.866934   -5.323034
  63 H     1.0000    0     1.008  -18.207863   -3.083399    7.016738

--------------------------------
INTERNAL COORDINATES (ANGSTROEM)
--------------------------------
 C      0   0   0     0.000000000000     0.00000000     0.00000000
 C      1   0   0     1.392444477708     0.00000000     0.00000000
 C      2   1   0     1.408013047600   119.11934752     0.00000000
 C      3   2   1     1.423227215889   118.37666835   359.52932659
 C      4   3   2     1.403265326380   122.61601622     0.82925252
 C      5   4   3     1.392530755192   117.45032584   359.47025373
 C      3   2   1     1.454890810918   135.05501738   181.48469866
 C      7   3   2     1.426807601924   105.98084554   177.41647152
 N      8   7   3     1.382186842910   109.30586609     1.25830922
 C      8   7   3     1.402590405237   123.17962249   182.28978965
 C     10   8   7     1.393345661571   117.33630364     0.76613230
 C     11  10   8     1.400251251321   120.84874993   359.35363118
 C     12  11  10     1.408459779558   122.52039356   359.40629639
 H     12  11  10     1.087657672931   118.73950486   180.95625868
 H      9   8   7     1.012581722372   125.31885531   180.85359213
 H     11  10   8     1.086233454807   119.81043239   179.56395533
 H      2   1   3     1.086018230319   120.08837014   179.75576946
 H      5   4   3     1.086745882563   121.15620126   179.76435932
 H      6   5   4     1.086822582313   119.57116217   180.00593294
 H      1   2   3     1.086532871472   119.39102909   180.07962491
 S     14  12  11     5.712727390669   125.95214865   191.71037798
 C     21  14  12     1.780144923460   155.87083007   303.27647713
 N     22  21  14     1.327524205426   112.82416599    24.32316166
 N     23  22  21     1.365333179765   113.99410428     0.00000000
 C     24  23  22     1.325659220071   113.47235944     0.00000000
 C     25  24  23     1.448144896727   124.49646327   179.95691999
 N     26  25  24     1.325897099957   124.40378925     0.45744628
 N     27  26  25     1.367079846236   113.33350304   180.06894997
 C     28  27  26     1.323534824062   114.30004572     0.28540011
 S     26  25  24     1.772067781026   122.22809860   180.34404901
 C     22  21  14     6.410262147448   137.27953604   228.60827766
 C     31  22  21     1.408746407630    88.77599807   282.29193289
 C     32  31  22     1.408648958732   119.16905137   206.35912274
 C     33  32  31     1.393114009867   120.10432261     0.00000000
 C     34  33  32     1.396941125197   120.52664846     0.37442555
 C     31  22  21     1.393135142502   141.52650266   141.09910005
 N     32  31  22     1.423087436326   120.52148204    26.77706848
 C     37  32  31     1.422720604638   119.40061639   144.27935451
 C     38  37  32     1.408749601069   120.31805095   324.80132856
 C     39  38  37     1.393078416655   120.11246399   179.57150617
 C     40  39  38     1.396973299746   120.53092225     0.37133428
 C     41  40  39     1.396973013198   119.56266869   359.68906807
 C     42  41  40     1.393120473585   120.53684121   359.88079360
 C     37  32  31     1.411886795383   120.28928493   324.30617894
 C     44  37  32     1.413285816082   120.70446364   328.93787905
 C     45  44  37     1.387356120690   120.53626427   179.89859152
 C     46  45  44     1.411405881235   121.06135433     0.17426098
 C     47  46  45     1.409362069207   118.17225007   359.91825242
 C     48  47  46     1.388339734751   121.18372457   359.89570914
 H     45  44  37     1.086221343689   119.65986355   359.11944822
 H     46  45  44     1.086352593336   119.85604199   179.46972514
 H     48  47  46     1.088113823190   119.46205791   180.62893730
 H     49  48  47     1.086047590181   119.80263391   180.97023585
 H     39  38  37     1.086331202319   119.72794059   359.29578725
 H     40  39  38     1.086839779228   119.48321370   179.78894667
 H     41  40  39     1.086025600332   120.22223077   179.78514673
 H     42  41  40     1.086820061061   119.99001350   180.55543457
 H     43  42  41     1.086378726538   120.11719908   180.95362688
 H     33  32  31     1.086341840455   119.73069126   179.69555141
 H     34  33  32     1.086837637553   119.48293481   179.77552373
 H     36  31  22     1.086778449936   119.46992661   313.45543591
 H     31  22  21     1.086371216436    40.43354001    64.58746439
 H     10   8   7     1.086348457130   121.22755900   180.12413223
 H     35  34  33     1.086024045512   120.21719215   179.76003519

---------------------------
INTERNAL COORDINATES (A.U.)
---------------------------
 C      0   0   0     0.000000000000     0.00000000     0.00000000
 C      1   0   0     2.631338719559     0.00000000     0.00000000
 C      2   1   0     2.660759052951   119.11934752     0.00000000
 C      3   2   1     2.689509664374   118.37666835   359.52932659
 C      4   3   2     2.651787160087   122.61601622     0.82925252
 C      5   4   3     2.631501760375   117.45032584   359.47025373
 C      3   2   1     2.749345187393   135.05501738   181.48469866
 C      7   3   2     2.696275613433   105.98084554   177.41647152
 N      8   7   3     2.611954599009   109.30586609     1.25830922
 C      8   7   3     2.650511743963   123.17962249   182.28978965
 C     10   8   7     2.633041710256   117.33630364     0.76613230
 C     11  10   8     2.646091383677   120.84874993   359.35363118
 C     12  11  10     2.661603254007   122.52039356   359.40629639
 H     12  11  10     2.055375129298   118.73950486   180.95625868
 H      9   8   7     1.913502143497   125.31885531   180.85359213
 H     11  10   8     2.052683747089   119.81043239   179.56395533
 H      2   1   3     2.052277031749   120.08837014   179.75576946
 H      5   4   3     2.053652095210   121.15620126   179.76435932
 H      6   5   4     2.053797036733   119.57116217   180.00593294
 H      1   2   3     2.053249562586   119.39102909   180.07962491
 S     14  12  11    10.795490246115   125.95214865   191.71037798
 C     21  14  12     3.363986384030   155.87083007   303.27647713
 N     22  21  14     2.508657184406   112.82416599    24.32316166
 N     23  22  21     2.580105791312   113.99410428     0.00000000
 C     24  23  22     2.505132872842   113.47235944     0.00000000
 C     25  24  23     2.736597257050   124.49646327   179.95691999
 N     26  25  24     2.505582400680   124.40378925     0.45744628
 N     27  26  25     2.583406512590   113.33350304   180.06894997
 C     28  27  26     2.501118346185   114.30004572     0.28540011
 S     26  25  24     3.348722796884   122.22809860   180.34404901
 C     22  21  14    12.113639905319   137.27953604   228.60827766
 C     31  22  21     2.662144902566    88.77599807   282.29193289
 C     32  31  22     2.661960750836   119.16905137   206.35912274
 C     33  32  31     2.632603951978   120.10432261     0.00000000
 C     34  33  32     2.639836151833   120.52664846     0.37442555
 C     31  22  21     2.632643886870   141.52650266   141.09910005
 N     32  31  22     2.689245519281   120.52148204    26.77706848
 C     37  32  31     2.688552307852   119.40061639   144.27935451
 C     38  37  32     2.662150937291   120.31805095   324.80132856
 C     39  38  37     2.632536690554   120.11246399   179.57150617
 C     40  39  38     2.639896952921   120.53092225     0.37133428
 C     41  40  39     2.639896411424   119.56266869   359.68906807
 C     42  41  40     2.632616166634   120.53684121   359.88079360
 C     37  32  31     2.668079375373   120.28928493   324.30617894
 C     44  37  32     2.670723141351   120.70446364   328.93787905
 C     45  44  37     2.621723118324   120.53626427   179.89859152
 C     46  45  44     2.667170579341   121.06135433     0.17426098
 C     47  46  45     2.663308334339   118.17225007   359.91825242
 C     48  47  46     2.623581879521   121.18372457   359.89570914
 H     45  44  37     2.052660860391   119.65986355   359.11944822
 H     46  45  44     2.052908886281   119.85604199   179.46972514
 H     48  47  46     2.056237128363   119.46205791   180.62893730
 H     49  48  47     2.052332513847   119.80263391   180.97023585
 H     39  38  37     2.052868463117   119.72794059   359.29578725
 H     40  39  38     2.053829534191   119.48321370   179.78894667
 H     41  40  39     2.052290959054   120.22223077   179.78514673
 H     42  41  40     2.053792272257   119.99001350   180.55543457
 H     43  42  41     2.052958270875   120.11719908   180.95362688
 H     33  32  31     2.052888566280   119.73069126   179.69555141
 H     34  33  32     2.053825487014   119.48293481   179.77552373
 H     36  31  22     2.053713638626   119.46992661   313.45543591
 H     31  22  21     2.052944078839    40.43354001    64.58746439
 H     10   8   7     2.052901069984   121.22755900   180.12413223
 H     35  34  33     2.052288020871   120.21719215   179.76003519

---------------------
BASIS SET INFORMATION
---------------------
There are 4 groups of distinct atoms

 Group   1 Type C   : 11s6p2d1f contracted to 5s3p2d1f pattern {62111/411/11/1}
 Group   2 Type N   : 11s6p2d1f contracted to 5s3p2d1f pattern {62111/411/11/1}
 Group   3 Type H   : 5s1p contracted to 3s1p pattern {311/1}
 Group   4 Type S   : 14s9p3d1f contracted to 5s5p2d1f pattern {73211/51111/21/1}

Atom   0C    basis set group =>   1
Atom   1C    basis set group =>   1
Atom   2C    basis set group =>   1
Atom   3C    basis set group =>   1
Atom   4C    basis set group =>   1
Atom   5C    basis set group =>   1
Atom   6C    basis set group =>   1
Atom   7C    basis set group =>   1
Atom   8N    basis set group =>   2
Atom   9C    basis set group =>   1
Atom  10C    basis set group =>   1
Atom  11C    basis set group =>   1
Atom  12C    basis set group =>   1
Atom  13H    basis set group =>   3
Atom  14H    basis set group =>   3
Atom  15H    basis set group =>   3
Atom  16H    basis set group =>   3
Atom  17H    basis set group =>   3
Atom  18H    basis set group =>   3
Atom  19H    basis set group =>   3
Atom  20S    basis set group =>   4
Atom  21C    basis set group =>   1
Atom  22N    basis set group =>   2
Atom  23N    basis set group =>   2
Atom  24C    basis set group =>   1
Atom  25C    basis set group =>   1
Atom  26N    basis set group =>   2
Atom  27N    basis set group =>   2
Atom  28C    basis set group =>   1
Atom  29S    basis set group =>   4
Atom  30C    basis set group =>   1
Atom  31C    basis set group =>   1
Atom  32C    basis set group =>   1
Atom  33C    basis set group =>   1
Atom  34C    basis set group =>   1
Atom  35C    basis set group =>   1
Atom  36N    basis set group =>   2
Atom  37C    basis set group =>   1
Atom  38C    basis set group =>   1
Atom  39C    basis set group =>   1
Atom  40C    basis set group =>   1
Atom  41C    basis set group =>   1
Atom  42C    basis set group =>   1
Atom  43C    basis set group =>   1
Atom  44C    basis set group =>   1
Atom  45C    basis set group =>   1
Atom  46C    basis set group =>   1
Atom  47C    basis set group =>   1
Atom  48C    basis set group =>   1
Atom  49H    basis set group =>   3
Atom  50H    basis set group =>   3
Atom  51H    basis set group =>   3
Atom  52H    basis set group =>   3
Atom  53H    basis set group =>   3
Atom  54H    basis set group =>   3
Atom  55H    basis set group =>   3
Atom  56H    basis set group =>   3
Atom  57H    basis set group =>   3
Atom  58H    basis set group =>   3
Atom  59H    basis set group =>   3
Atom  60H    basis set group =>   3
Atom  61H    basis set group =>   3
Atom  62H    basis set group =>   3
Atom  63H    basis set group =>   3
-------------------------------
AUXILIARY BASIS SET INFORMATION
-------------------------------
There are 4 groups of distinct atoms

 Group   1 Type C   : 12s5p4d2f1g contracted to 6s4p3d1f1g pattern {711111/2111/211/2/1}
 Group   2 Type N   : 12s5p4d2f1g contracted to 6s4p3d1f1g pattern {711111/2111/211/2/1}
 Group   3 Type H   : 5s2p1d contracted to 3s1p1d pattern {311/2/1}
 Group   4 Type S   : 14s5p5d2f1g contracted to 8s4p3d1f1g pattern {71111111/2111/311/2/1}

Atom   0C    basis set group =>   1
Atom   1C    basis set group =>   1
Atom   2C    basis set group =>   1
Atom   3C    basis set group =>   1
Atom   4C    basis set group =>   1
Atom   5C    basis set group =>   1
Atom   6C    basis set group =>   1
Atom   7C    basis set group =>   1
Atom   8N    basis set group =>   2
Atom   9C    basis set group =>   1
Atom  10C    basis set group =>   1
Atom  11C    basis set group =>   1
Atom  12C    basis set group =>   1
Atom  13H    basis set group =>   3
Atom  14H    basis set group =>   3
Atom  15H    basis set group =>   3
Atom  16H    basis set group =>   3
Atom  17H    basis set group =>   3
Atom  18H    basis set group =>   3
Atom  19H    basis set group =>   3
Atom  20S    basis set group =>   4
Atom  21C    basis set group =>   1
Atom  22N    basis set group =>   2
Atom  23N    basis set group =>   2
Atom  24C    basis set group =>   1
Atom  25C    basis set group =>   1
Atom  26N    basis set group =>   2
Atom  27N    basis set group =>   2
Atom  28C    basis set group =>   1
Atom  29S    basis set group =>   4
Atom  30C    basis set group =>   1
Atom  31C    basis set group =>   1
Atom  32C    basis set group =>   1
Atom  33C    basis set group =>   1
Atom  34C    basis set group =>   1
Atom  35C    basis set group =>   1
Atom  36N    basis set group =>   2
Atom  37C    basis set group =>   1
Atom  38C    basis set group =>   1
Atom  39C    basis set group =>   1
Atom  40C    basis set group =>   1
Atom  41C    basis set group =>   1
Atom  42C    basis set group =>   1
Atom  43C    basis set group =>   1
Atom  44C    basis set group =>   1
Atom  45C    basis set group =>   1
Atom  46C    basis set group =>   1
Atom  47C    basis set group =>   1
Atom  48C    basis set group =>   1
Atom  49H    basis set group =>   3
Atom  50H    basis set group =>   3
Atom  51H    basis set group =>   3
Atom  52H    basis set group =>   3
Atom  53H    basis set group =>   3
Atom  54H    basis set group =>   3
Atom  55H    basis set group =>   3
Atom  56H    basis set group =>   3
Atom  57H    basis set group =>   3
Atom  58H    basis set group =>   3
Atom  59H    basis set group =>   3
Atom  60H    basis set group =>   3
Atom  61H    basis set group =>   3
Atom  62H    basis set group =>   3
Atom  63H    basis set group =>   3
-------------------------
ECP PARAMETER INFORMATION
-------------------------



--------------------------------------------------------------------------
[[52997,1],21]: A high-performance Open MPI point-to-point messaging module
was unable to find any relevant network interfaces:

Module: OpenFabrics (openib)
  Host: cx1-103-14-2

Another transport will be used instead, although this may result in
lower performance.
--------------------------------------------------------------------------


           ************************************************************
           *        Program running with 24 parallel MPI-processes    *
           *              working on a common directory               *
           ************************************************************
------------------------------------------------------------------------------
                           ORCA GTO INTEGRAL CALCULATION
                           -- RI-GTO INTEGRALS CHOSEN --
------------------------------------------------------------------------------

                         BASIS SET STATISTICS AND STARTUP INFO

Gaussian basis set:
 # of primitive gaussian shells          ...  986
 # of primitive gaussian functions       ... 2142
 # of contracted shells                  ...  554
 # of contracted basis functions         ... 1446
 Highest angular momentum                ...    3
 Maximum contraction depth               ...    7
Auxiliary gaussian basis set:
 # of primitive gaussian shells          ... 1190
 # of primitive gaussian functions       ... 3306
 # of contracted shells                  ...  744
 # of contracted aux-basis functions     ... 2304
 Highest angular momentum                ...    4
 Maximum contraction depth               ...    7
Ratio of auxiliary to basis functions    ...  1.59
Integral package used                  ... LIBINT
 One Electron integrals                  
   ECP integrals                         ... done
 Ordering auxiliary basis shells         ... done
 Integral threshhold             Thresh  ...  2.500e-11
 Primitive cut-off               TCut    ...  2.500e-12
 Pre-screening matrix                    ... done
 Shell pair data                         ... 
 Ordering of the shell pairs             ... done (   0.016 sec) 63902 of 153735 pairs
 Determination of significant pairs      ... done (   0.000 sec)
 Creation of shell pair data             ... done (   0.014 sec)
 Storage of shell pair data              ... done (   0.164 sec)
 Shell pair data done in (   0.194 sec)
 Computing two index integrals           ... done
 Cholesky decomposition of the V-matrix  ... done


Timings:
 Total evaluation time                   ...   7.490 sec (  0.125 min)
 One electron matrix time                ...   2.406 sec (  0.040 min) = 32.1%
 Schwartz matrix evaluation time         ...   2.737 sec (  0.046 min) = 36.5%
 Two index repulsion integral time       ...   1.160 sec (  0.019 min) = 15.5%
 Cholesky decomposition of V             ...   0.937 sec (  0.016 min) = 12.5%
 Three index repulsion integral time     ...   0.000 sec (  0.000 min) =  0.0%

--------------------------------------------------------------------------
[[53078,1],8]: A high-performance Open MPI point-to-point messaging module
was unable to find any relevant network interfaces:

Module: OpenFabrics (openib)
  Host: cx1-103-14-2

Another transport will be used instead, although this may result in
lower performance.
--------------------------------------------------------------------------


           ************************************************************
           *        Program running with 24 parallel MPI-processes    *
           *              working on a common directory               *
           ************************************************************
-------------------------------------------------------------------------------
                                 ORCA SCF
-------------------------------------------------------------------------------

------------
SCF SETTINGS
------------
Hamiltonian:
 Density Functional     Method          .... DFT(GTOs)
 Exchange Functional    Exchange        .... WB97X-D3
 Correlation Functional Correlation     .... WB97X-D3
 Gradients option       PostSCFGGA      .... off
 Hybrid DFT is turned on
   Fraction HF Exchange ScalHFX         ....  0.195728
   Scaling of DF-GGA-X  ScalDFX         ....  0.000000
   Scaling of DF-GGA-C  ScalDFC         ....  1.000000
   Scaling of DF-LDA-C  ScalLDAC        ....  1.000000
   Perturbative correction              ....  0.000000
 Long-range corrected/Screened/Range-Separated Hybrid DFT is turned on
   Amount of maximum screened exact exchange              ....  0.804272
   Range separation parameter mu (erf(mu*r12)/r12)        ....  0.250000
 RI-approximation to the Coulomb term is turned on
   Number of auxiliary basis functions  .... 2304
   RIJ-COSX (HFX calculated with COS-X)).... on


General Settings:
 Integral files         IntName         .... total
 Hartree-Fock type      HFTyp           .... RHF
 Total Charge           Charge          ....    0
 Multiplicity           Mult            ....    1
 Number of Electrons    NEL             ....  300
 Basis Dimension        Dim             .... 1446
 Nuclear Repulsion      ENuc            ....   4357.8753396520 Eh

Convergence Acceleration:
 DIIS                   CNVDIIS         .... on
   Start iteration      DIISMaxIt       ....    12
   Startup error        DIISStart       ....  0.200000
   # of expansion vecs  DIISMaxEq       ....     5
   Bias factor          DIISBfac        ....   1.050
   Max. coefficient     DIISMaxC        ....  10.000
 Newton-Raphson         CNVNR           .... off
 SOSCF                  CNVSOSCF        .... on
   Start iteration      SOSCFMaxIt      ....   150
   Startup grad/error   SOSCFStart      ....  0.003300
 Level Shifting         CNVShift        .... on
   Level shift para.    LevelShift      ....    0.2500
   Turn off err/grad.   ShiftErr        ....    0.0010
 Zerner damping         CNVZerner       .... off
 Static damping         CNVDamp         .... on
   Fraction old density DampFac         ....    0.7000
   Max. Damping (<1)    DampMax         ....    0.9800
   Min. Damping (>=0)   DampMin         ....    0.0000
   Turn off err/grad.   DampErr         ....    0.1000
 Fernandez-Rico         CNVRico         .... off

SCF Procedure:
 Maximum # iterations   MaxIter         ....   125
 SCF integral mode      SCFMode         .... Direct
   Integral package                     .... LIBINT
 Reset frequeny         DirectResetFreq ....    20
 Integral Threshold     Thresh          ....  2.500e-11 Eh
 Primitive CutOff       TCut            ....  2.500e-12 Eh

Convergence Tolerance:
 Convergence Check Mode ConvCheckMode   .... Total+1el-Energy
 Convergence forced     ConvForced      .... 1
 Energy Change          TolE            ....  1.000e-08 Eh
 1-El. energy change                    ....  1.000e-05 Eh
 Orbital Gradient       TolG            ....  1.000e-05
 Orbital Rotation angle TolX            ....  1.000e-05
 DIIS Error             TolErr          ....  5.000e-07


Diagonalization of the overlap matrix:
Smallest eigenvalue                        ... 6.231e-06
Time for diagonalization                   ...    0.734 sec
Threshold for overlap eigenvalues          ... 1.000e-08
Number of eigenvalues below threshold      ... 0
Time for construction of square roots      ...    0.733 sec
Total time needed                          ...    1.478 sec

-------------------
DFT GRID GENERATION
-------------------

General Integration Accuracy     IntAcc      ...  5.010
Radial Grid Type                 RadialGrid  ... Gauss-Chebyshev
Angular Grid (max. acc.)         AngularGrid ... Lebedev-434
Angular grid pruning method      GridPruning ... 3 (G Style)
Weight generation scheme         WeightScheme... Becke
Basis function cutoff            BFCut       ...    1.0000e-11
Integration weight cutoff        WCut        ...    1.0000e-14
Grids for H and He will be reduced by one unit

# of grid points (after initial pruning)     ... 597976 (   0.0 sec)
# of grid points (after weights+screening)   ... 520784 (   2.2 sec)
nearest neighbour list constructed           ...    0.0 sec
Grid point re-assignment to atoms done       ...    0.2 sec
Grid point division into batches done        ...    5.0 sec
Reduced shell lists constructed in    5.8 sec

Total number of grid points                  ...   520784
Total number of batches                      ...     8170
Average number of points per batch           ...       63
Average number of grid points per atom       ...     8137
Average number of shells per batch           ...   137.74 (24.86%)
Average number of basis functions per batch  ...   365.99 (25.31%)
Average number of large shells per batch     ...    97.59 (70.85%)
Average number of large basis fcns per batch ...   256.62 (70.12%)
Maximum spatial batch extension              ...  10.12, 15.54, 16.92 au
Average spatial batch extension              ...   0.06,  0.07,  0.07 au

Time for grid setup =    8.769 sec

------------------------------
INITIAL GUESS: MODEL POTENTIAL
------------------------------
Loading Hartree-Fock densities                     ... done
Calculating cut-offs                               ... done
Setting up the integral package                    ... done
Initializing the effective Hamiltonian             ... done
Starting the Coulomb interaction                   ... done (   0.7 sec)
Reading the grid                                   ... done
Mapping shells                                     ... done
Starting the XC term evaluation                    ... done (   2.6 sec)
  promolecular density results
     # of electrons  =    299.988823056
     EX              =   -269.410716893
     EC              =    -10.298731675
     EX+EC           =   -279.709448569
Transforming the Hamiltonian                       ... done (   0.4 sec)
Diagonalizing the Hamiltonian                      ... done (   0.6 sec)
Back transforming the eigenvectors                 ... done (   0.2 sec)
Now organizing SCF variables                       ... done
                      ------------------
                      INITIAL GUESS DONE (  13.6 sec)
                      ------------------
--------------------
COSX GRID GENERATION
--------------------

General Integration Accuracy     IntAcc      ...  3.340
Radial Grid Type                 RadialGrid  ... Gauss-Chebyshev
Angular Grid (max. acc.)         AngularGrid ... Lebedev-50
Angular grid pruning method      GridPruning ... 3 (G Style)
Weight generation scheme         WeightScheme... Becke
Basis function cutoff            BFCut       ...    1.0000e-11
Integration weight cutoff        WCut        ...    1.0000e-14
Grids for H and He will be reduced by one unit

# of grid points (after initial pruning)     ...  31568 (   0.0 sec)
# of grid points (after weights+screening)   ...  28589 (   0.1 sec)
nearest neighbour list constructed           ...    0.0 sec
Grid point re-assignment to atoms done       ...    0.0 sec
Grid point division into batches done        ...    0.0 sec
Reduced shell lists constructed in    0.1 sec

Total number of grid points                  ...    28589
Total number of batches                      ...      476
Average number of points per batch           ...       60
Average number of grid points per atom       ...      447
Average number of shells per batch           ...   149.67 (27.02%)
Average number of basis functions per batch  ...   400.62 (27.71%)
Average number of large shells per batch     ...   108.29 (72.35%)
Average number of large basis fcns per batch ...   288.67 (72.06%)
Maximum spatial batch extension              ...   5.29, 13.51, 10.85 au
Average spatial batch extension              ...   0.11,  0.16,  0.14 au

Overlap Fitting                  UseSFitting ... on
Constructing numerical overlap ... done (      0.2 sec)
Inverting numerical overlap    ... done (      0.3 sec)
Obtaining analytic overlap     ... done (      0.0 sec)
Final contraction and storage  ... done (      0.9 sec)


General Integration Accuracy     IntAcc      ...  3.670
Radial Grid Type                 RadialGrid  ... Gauss-Chebyshev
Angular Grid (max. acc.)         AngularGrid ... Lebedev-50
Angular grid pruning method      GridPruning ... 3 (G Style)
Weight generation scheme         WeightScheme... Becke
Basis function cutoff            BFCut       ...    1.0000e-11
Integration weight cutoff        WCut        ...    1.0000e-14
Grids for H and He will be reduced by one unit

# of grid points (after initial pruning)     ...  39572 (   0.0 sec)
# of grid points (after weights+screening)   ...  35706 (   0.1 sec)
nearest neighbour list constructed           ...    0.0 sec
Grid point re-assignment to atoms done       ...    0.0 sec
Grid point division into batches done        ...    0.0 sec
Reduced shell lists constructed in    0.1 sec

Total number of grid points                  ...    35706
Total number of batches                      ...      582
Average number of points per batch           ...       61
Average number of grid points per atom       ...      558
Average number of shells per batch           ...   152.77 (27.58%)
Average number of basis functions per batch  ...   411.54 (28.46%)
Average number of large shells per batch     ...   109.38 (71.60%)
Average number of large basis fcns per batch ...   292.08 (70.97%)
Maximum spatial batch extension              ...  10.18, 14.50, 11.90 au
Average spatial batch extension              ...   0.13,  0.20,  0.18 au

Overlap Fitting                  UseSFitting ... on
Constructing numerical overlap ... done (      0.2 sec)
Inverting numerical overlap    ... done (      0.2 sec)
Obtaining analytic overlap     ... done (      0.0 sec)
Final contraction and storage  ... done (      0.9 sec)


General Integration Accuracy     IntAcc      ...  4.010
Radial Grid Type                 RadialGrid  ... Gauss-Chebyshev
Angular Grid (max. acc.)         AngularGrid ... Lebedev-110
Angular grid pruning method      GridPruning ... 3 (G Style)
Weight generation scheme         WeightScheme... Becke
Basis function cutoff            BFCut       ...    1.0000e-11
Integration weight cutoff        WCut        ...    1.0000e-14
Grids for H and He will be reduced by one unit

# of grid points (after initial pruning)     ...  76680 (   0.0 sec)
# of grid points (after weights+screening)   ...  68663 (   0.3 sec)
nearest neighbour list constructed           ...    0.0 sec
Grid point re-assignment to atoms done       ...    0.0 sec
Grid point division into batches done        ...    0.1 sec
Reduced shell lists constructed in    0.2 sec

Total number of grid points                  ...    68663
Total number of batches                      ...     1105
Average number of points per batch           ...       62
Average number of grid points per atom       ...     1073
Average number of shells per batch           ...   149.54 (26.99%)
Average number of basis functions per batch  ...   402.54 (27.84%)
Average number of large shells per batch     ...   107.44 (71.84%)
Average number of large basis fcns per batch ...   286.48 (71.17%)
Maximum spatial batch extension              ...   9.90, 17.44, 20.24 au
Average spatial batch extension              ...   0.11,  0.17,  0.16 au

Overlap Fitting                  UseSFitting ... on
Constructing numerical overlap ... done (      0.3 sec)
Inverting numerical overlap    ... done (      0.2 sec)
Obtaining analytic overlap     ... done (      0.0 sec)
Final contraction and storage  ... done (      0.9 sec)

Time for X-Grid setup             =    5.790 sec
--------------
SCF ITERATIONS
--------------
ITER       Energy         Delta-E        Max-DP      RMS-DP      [F,P]     Damp
               ***  Starting incremental Fock matrix formation  ***
  0  -2432.9319371413   0.000000000000 0.03597900  0.00053678  0.1529250 0.7000
  1  -2433.2960285875  -0.364091446215 0.02864884  0.00042345  0.0917793 0.7000
                               ***Turning on DIIS***
  2  -2433.4707856214  -0.174757033917 0.06442802  0.00087098  0.0517020 0.0000
  3  -2433.7625643599  -0.291778738459 0.03337858  0.00031530  0.0379617 0.0000
  4  -2433.8091176453  -0.046553285457 0.01531722  0.00009584  0.0138871 0.0000
  5  -2433.8118565640  -0.002738918708 0.00593748  0.00004385  0.0052555 0.0000
                      *** Initiating the SOSCF procedure ***
                           *** Shutting down DIIS ***
                      *** Re-Reading the Fockian *** 
                      *** Removing any level shift *** 
ITER      Energy       Delta-E        Grad      Rot      Max-DP    RMS-DP
  6  -2433.81238432  -0.0005277539  0.002594  0.002594  0.002470  0.000026
               *** Restarting incremental Fock matrix formation ***
  7  -2433.81257604  -0.0001917201  0.001726  0.004726  0.013453  0.000106
  8  -2433.81265392  -0.0000778795  0.000658  0.005120  0.010045  0.000074
  9  -2433.81267367  -0.0000197486  0.000266  0.001227  0.008533  0.000062
 10  -2433.81268346  -0.0000097906  0.000100  0.000325  0.001283  0.000010
 11  -2433.81268370  -0.0000002454  0.000094  0.000181  0.000813  0.000007
 12  -2433.81268413  -0.0000004299  0.000013  0.000055  0.000287  0.000002
 13  -2433.81268412   0.0000000103  0.000012  0.000023  0.000148  0.000001
                  ***Gradient check signals convergence***
              ***Rediagonalizing the Fockian in SOSCF/NRSCF***

               *****************************************************
               *                     SUCCESS                       *
               *           SCF CONVERGED AFTER  14 CYCLES          *
               *****************************************************

Old exchange energy                            =    -85.693958045 Eh
New exchange energy                            =    -85.694458230 Eh
Exchange energy change after final integration =     -0.000500184 Eh
Total energy after final integration           =  -2433.813184371 Eh
Final COS-X integration done in                =    56.909 sec

----------------
TOTAL SCF ENERGY
----------------

Total Energy       :        -2433.81318437 Eh          -66227.42368 eV

Components:
Nuclear Repulsion  :         4357.87533965 Eh          118583.81668 eV
Electronic Energy  :        -6791.68852402 Eh         -184811.24036 eV
One Electron Energy:       -11988.19959711 Eh         -326215.49551 eV
Two Electron Energy:         5196.51107309 Eh          141404.25515 eV

Virial components:
Potential Energy   :        -4857.35234171 Eh         -132175.27688 eV
Kinetic Energy     :         2423.53915734 Eh           65947.85320 eV
Virial Ratio       :            2.00423927


DFT components:
N(Alpha)           :      149.999867146165 electrons
N(Beta)            :      149.999867146165 electrons
N(Total)           :      299.999734292330 electrons
E(XC)              :     -199.516347113754 Eh       

---------------
SCF CONVERGENCE
---------------

  Last Energy change         ...   -6.4751e-08  Tolerance :   1.0000e-08
  Last MAX-Density change    ...    2.3257e-14  Tolerance :   1.0000e-07
  Last RMS-Density change    ...    1.0977e-16  Tolerance :   5.0000e-09
  Last Orbital Gradient      ...    2.3904e-06  Tolerance :   1.0000e-05
  Last Orbital Rotation      ...    9.8328e-06  Tolerance :   1.0000e-05

             **** THE GBW FILE WAS UPDATED (total.gbw) ****
             **** DENSITY FILE WAS UPDATED (total.scfp.tmp) ****
             **** ENERGY FILE WAS UPDATED (total.en.tmp) ****
----------------
ORBITAL ENERGIES
----------------

  NO   OCC          E(Eh)            E(eV) 
   0   2.0000     -89.007973     -2422.0301 
   1   2.0000     -89.007837     -2422.0264 
   2   2.0000     -14.473503      -393.8441 
   3   2.0000     -14.470471      -393.7615 
   4   2.0000     -14.467982      -393.6938 
   5   2.0000     -14.467561      -393.6824 
   6   2.0000     -14.463725      -393.5780 
   7   2.0000     -14.461826      -393.5263 
   8   2.0000     -10.377538      -282.3872 
   9   2.0000     -10.375950      -282.3440 
  10   2.0000     -10.375245      -282.3248 
  11   2.0000     -10.374185      -282.2959 
  12   2.0000     -10.349031      -281.6114 
  13   2.0000     -10.339705      -281.3577 
  14   2.0000     -10.338870      -281.3350 
  15   2.0000     -10.334959      -281.2285 
  16   2.0000     -10.325427      -280.9691 
  17   2.0000     -10.321314      -280.8572 
  18   2.0000     -10.313305      -280.6393 
  19   2.0000     -10.308047      -280.4962 
  20   2.0000     -10.305306      -280.4216 
  21   2.0000     -10.301354      -280.3141 
  22   2.0000     -10.299759      -280.2707 
  23   2.0000     -10.297838      -280.2184 
  24   2.0000     -10.296690      -280.1872 
  25   2.0000     -10.295630      -280.1583 
  26   2.0000     -10.295558      -280.1564 
  27   2.0000     -10.294019      -280.1145 
  28   2.0000     -10.293780      -280.1080 
  29   2.0000     -10.292779      -280.0808 
  30   2.0000     -10.292767      -280.0804 
  31   2.0000     -10.292256      -280.0665 
  32   2.0000     -10.291728      -280.0522 
  33   2.0000     -10.291194      -280.0376 
  34   2.0000     -10.290899      -280.0296 
  35   2.0000     -10.288289      -279.9586 
  36   2.0000     -10.288124      -279.9541 
  37   2.0000     -10.287040      -279.9246 
  38   2.0000     -10.283536      -279.8292 
  39   2.0000     -10.282524      -279.8017 
  40   2.0000     -10.276206      -279.6298 
  41   2.0000     -10.269457      -279.4461 
  42   2.0000      -8.104734      -220.5410 
  43   2.0000      -8.104651      -220.5388 
  44   2.0000      -6.057671      -164.8376 
  45   2.0000      -6.057560      -164.8346 
  46   2.0000      -6.053984      -164.7373 
  47   2.0000      -6.053960      -164.7366 
  48   2.0000      -6.051861      -164.6795 
  49   2.0000      -6.051761      -164.6768 
  50   2.0000      -1.153570       -31.3902 
  51   2.0000      -1.144638       -31.1472 
  52   2.0000      -1.107755       -30.1436 
  53   2.0000      -1.102636       -30.0043 
  54   2.0000      -1.000916       -27.2363 
  55   2.0000      -0.991775       -26.9876 
  56   2.0000      -0.985774       -26.8243 
  57   2.0000      -0.976652       -26.5760 
  58   2.0000      -0.969293       -26.3758 
  59   2.0000      -0.962668       -26.1955 
  60   2.0000      -0.941819       -25.6282 
  61   2.0000      -0.938926       -25.5495 
  62   2.0000      -0.913246       -24.8507 
  63   2.0000      -0.901713       -24.5368 
  64   2.0000      -0.890108       -24.2211 
  65   2.0000      -0.887609       -24.1531 
  66   2.0000      -0.875387       -23.8205 
  67   2.0000      -0.875053       -23.8114 
  68   2.0000      -0.870715       -23.6934 
  69   2.0000      -0.869884       -23.6708 
  70   2.0000      -0.846385       -23.0313 
  71   2.0000      -0.840973       -22.8840 
  72   2.0000      -0.837267       -22.7832 
  73   2.0000      -0.786503       -21.4018 
  74   2.0000      -0.768687       -20.9170 
  75   2.0000      -0.764746       -20.8098 
  76   2.0000      -0.751417       -20.4471 
  77   2.0000      -0.731767       -19.9124 
  78   2.0000      -0.729471       -19.8499 
  79   2.0000      -0.725493       -19.7417 
  80   2.0000      -0.721701       -19.6385 
  81   2.0000      -0.720867       -19.6158 
  82   2.0000      -0.712437       -19.3864 
  83   2.0000      -0.703231       -19.1359 
  84   2.0000      -0.688565       -18.7368 
  85   2.0000      -0.685579       -18.6555 
  86   2.0000      -0.660335       -17.9686 
  87   2.0000      -0.653534       -17.7836 
  88   2.0000      -0.650425       -17.6990 
  89   2.0000      -0.640767       -17.4362 
  90   2.0000      -0.625419       -17.0185 
  91   2.0000      -0.616469       -16.7750 
  92   2.0000      -0.610744       -16.6192 
  93   2.0000      -0.599833       -16.3223 
  94   2.0000      -0.595140       -16.1946 
  95   2.0000      -0.583826       -15.8867 
  96   2.0000      -0.577670       -15.7192 
  97   2.0000      -0.571622       -15.5546 
  98   2.0000      -0.569337       -15.4924 
  99   2.0000      -0.567380       -15.4392 
 100   2.0000      -0.562480       -15.3059 
 101   2.0000      -0.561104       -15.2684 
 102   2.0000      -0.553602       -15.0643 
 103   2.0000      -0.551054       -14.9950 
 104   2.0000      -0.545469       -14.8430 
 105   2.0000      -0.541735       -14.7414 
 106   2.0000      -0.541356       -14.7310 
 107   2.0000      -0.538582       -14.6556 
 108   2.0000      -0.535331       -14.5671 
 109   2.0000      -0.533226       -14.5098 
 110   2.0000      -0.531564       -14.4646 
 111   2.0000      -0.530309       -14.4304 
 112   2.0000      -0.528173       -14.3723 
 113   2.0000      -0.523874       -14.2553 
 114   2.0000      -0.520850       -14.1731 
 115   2.0000      -0.515387       -14.0244 
 116   2.0000      -0.499176       -13.5833 
 117   2.0000      -0.491501       -13.3744 
 118   2.0000      -0.489623       -13.3233 
 119   2.0000      -0.484513       -13.1843 
 120   2.0000      -0.477764       -13.0006 
 121   2.0000      -0.472140       -12.8476 
 122   2.0000      -0.468340       -12.7442 
 123   2.0000      -0.466930       -12.7058 
 124   2.0000      -0.462914       -12.5965 
 125   2.0000      -0.458622       -12.4797 
 126   2.0000      -0.446952       -12.1622 
 127   2.0000      -0.446613       -12.1530 
 128   2.0000      -0.445385       -12.1195 
 129   2.0000      -0.445245       -12.1157 
 130   2.0000      -0.436656       -11.8820 
 131   2.0000      -0.432649       -11.7730 
 132   2.0000      -0.415909       -11.3175 
 133   2.0000      -0.407179       -11.0799 
 134   2.0000      -0.404085       -10.9957 
 135   2.0000      -0.400109       -10.8875 
 136   2.0000      -0.394077       -10.7234 
 137   2.0000      -0.383651       -10.4397 
 138   2.0000      -0.376066       -10.2333 
 139   2.0000      -0.369378       -10.0513 
 140   2.0000      -0.363574        -9.8933 
 141   2.0000      -0.358442        -9.7537 
 142   2.0000      -0.357750        -9.7349 
 143   2.0000      -0.350594        -9.5401 
 144   2.0000      -0.348535        -9.4841 
 145   2.0000      -0.344179        -9.3656 
 146   2.0000      -0.324278        -8.8241 
 147   2.0000      -0.300291        -8.1713 
 148   2.0000      -0.290367        -7.9013 
 149   2.0000      -0.271745        -7.3945 
 150   0.0000      -0.034372        -0.9353 
 151   0.0000       0.003251         0.0885 
 152   0.0000       0.026026         0.7082 
 153   0.0000       0.034183         0.9302 
 154   0.0000       0.034617         0.9420 
 155   0.0000       0.038254         1.0409 
 156   0.0000       0.052334         1.4241 
 157   0.0000       0.059304         1.6137 
 158   0.0000       0.062224         1.6932 
 159   0.0000       0.073016         1.9869 
 160   0.0000       0.082607         2.2479 
 161   0.0000       0.090165         2.4535 
 162   0.0000       0.101073         2.7503 
 163   0.0000       0.107396         2.9224 
 164   0.0000       0.109507         2.9798 
 165   0.0000       0.112480         3.0607 
 166   0.0000       0.115730         3.1492 
 167   0.0000       0.121399         3.3034 
 168   0.0000       0.129308         3.5187 
 169   0.0000       0.133903         3.6437 
 170   0.0000       0.138647         3.7728 
 171   0.0000       0.141442         3.8488 
 172   0.0000       0.143607         3.9077 
 173   0.0000       0.145597         3.9619 
 174   0.0000       0.147304         4.0083 
 175   0.0000       0.151939         4.1345 
 176   0.0000       0.156588         4.2610 
 177   0.0000       0.161876         4.4049 
 178   0.0000       0.162673         4.4266 
 179   0.0000       0.166555         4.5322 
 180   0.0000       0.167092         4.5468 
 181   0.0000       0.171293         4.6611 
 182   0.0000       0.176970         4.8156 
 183   0.0000       0.177884         4.8405 
 184   0.0000       0.180785         4.9194 
 185   0.0000       0.184200         5.0123 
 186   0.0000       0.188003         5.1158 
 187   0.0000       0.191216         5.2033 
 188   0.0000       0.194314         5.2875 
 189   0.0000       0.198892         5.4121 
 190   0.0000       0.202898         5.5211 
 191   0.0000       0.211802         5.7634 
 192   0.0000       0.213043         5.7972 
 193   0.0000       0.214338         5.8324 
 194   0.0000       0.214938         5.8488 
 195   0.0000       0.218406         5.9431 
 196   0.0000       0.225779         6.1438 
 197   0.0000       0.231591         6.3019 
 198   0.0000       0.232650         6.3307 
 199   0.0000       0.237807         6.4711 
 200   0.0000       0.239580         6.5193 
 201   0.0000       0.252573         6.8729 
 202   0.0000       0.256490         6.9795 
 203   0.0000       0.257259         7.0004 
 204   0.0000       0.258536         7.0351 
 205   0.0000       0.260674         7.0933 
 206   0.0000       0.263456         7.1690 
 207   0.0000       0.264520         7.1980 
 208   0.0000       0.266284         7.2460 
 209   0.0000       0.269577         7.3356 
 210   0.0000       0.271122         7.3776 
 211   0.0000       0.274261         7.4630 
 212   0.0000       0.275329         7.4921 
 213   0.0000       0.277963         7.5638 
 214   0.0000       0.282332         7.6826 
 215   0.0000       0.283378         7.7111 
 216   0.0000       0.286711         7.8018 
 217   0.0000       0.288762         7.8576 
 218   0.0000       0.290208         7.8970 
 219   0.0000       0.291679         7.9370 
 220   0.0000       0.293783         7.9942 
 221   0.0000       0.294504         8.0139 
 222   0.0000       0.295090         8.0298 
 223   0.0000       0.298397         8.1198 
 224   0.0000       0.299782         8.1575 
 225   0.0000       0.302745         8.2381 
 226   0.0000       0.304256         8.2792 
 227   0.0000       0.307860         8.3773 
 228   0.0000       0.310086         8.4379 
 229   0.0000       0.312974         8.5165 
 230   0.0000       0.314199         8.5498 
 231   0.0000       0.315155         8.5758 
 232   0.0000       0.319716         8.6999 
 233   0.0000       0.322201         8.7675 
 234   0.0000       0.323207         8.7949 
 235   0.0000       0.327585         8.9140 
 236   0.0000       0.328528         8.9397 
 237   0.0000       0.331258         9.0140 
 238   0.0000       0.333352         9.0710 
 239   0.0000       0.334916         9.1135 
 240   0.0000       0.336834         9.1657 
 241   0.0000       0.341308         9.2875 
 242   0.0000       0.341616         9.2958 
 243   0.0000       0.345654         9.4057 
 244   0.0000       0.350263         9.5312 
 245   0.0000       0.352845         9.6014 
 246   0.0000       0.356602         9.7036 
 247   0.0000       0.358084         9.7440 
 248   0.0000       0.360467         9.8088 
 249   0.0000       0.364564         9.9203 
 250   0.0000       0.368950        10.0397 
 251   0.0000       0.369677        10.0594 
 252   0.0000       0.371187        10.1005 
 253   0.0000       0.375760        10.2250 
 254   0.0000       0.376858        10.2548 
 255   0.0000       0.378528        10.3003 
 256   0.0000       0.379633        10.3303 
 257   0.0000       0.381675        10.3859 
 258   0.0000       0.384439        10.4611 
 259   0.0000       0.388467        10.5707 
 260   0.0000       0.389227        10.5914 
 261   0.0000       0.391349        10.6492 
 262   0.0000       0.394562        10.7366 
 263   0.0000       0.397673        10.8212 
 264   0.0000       0.401084        10.9141 
 265   0.0000       0.401384        10.9222 
 266   0.0000       0.404196        10.9987 
 267   0.0000       0.406260        11.0549 
 268   0.0000       0.411949        11.2097 
 269   0.0000       0.415421        11.3042 
 270   0.0000       0.420338        11.4380 
 271   0.0000       0.421821        11.4783 
 272   0.0000       0.422309        11.4916 
 273   0.0000       0.424318        11.5463 
 274   0.0000       0.428278        11.6540 
 275   0.0000       0.431794        11.7497 
 276   0.0000       0.432305        11.7636 
 277   0.0000       0.433556        11.7977 
 278   0.0000       0.435222        11.8430 
 279   0.0000       0.440068        11.9749 
 280   0.0000       0.442765        12.0482 
 281   0.0000       0.444670        12.1001 
 282   0.0000       0.445962        12.1352 
 283   0.0000       0.448601        12.2070 
 284   0.0000       0.449342        12.2272 
 285   0.0000       0.452494        12.3130 
 286   0.0000       0.454475        12.3669 
 287   0.0000       0.457810        12.4577 
 288   0.0000       0.459109        12.4930 
 289   0.0000       0.462498        12.5852 
 290   0.0000       0.463786        12.6203 
 291   0.0000       0.467085        12.7100 
 292   0.0000       0.467139        12.7115 
 293   0.0000       0.469790        12.7836 
 294   0.0000       0.471614        12.8333 
 295   0.0000       0.473768        12.8919 
 296   0.0000       0.474117        12.9014 
 297   0.0000       0.476794        12.9742 
 298   0.0000       0.479294        13.0423 
 299   0.0000       0.481135        13.0924 
 300   0.0000       0.483681        13.1616 
 301   0.0000       0.485914        13.2224 
 302   0.0000       0.487245        13.2586 
 303   0.0000       0.489642        13.3238 
 304   0.0000       0.491832        13.3834 
 305   0.0000       0.493148        13.4192 
 306   0.0000       0.497799        13.5458 
 307   0.0000       0.498685        13.5699 
 308   0.0000       0.499095        13.5811 
 309   0.0000       0.503909        13.7121 
 310   0.0000       0.505268        13.7490 
 311   0.0000       0.505836        13.7645 
 312   0.0000       0.508609        13.8400 
 313   0.0000       0.511012        13.9053 
 314   0.0000       0.513014        13.9598 
 315   0.0000       0.515250        14.0207 
 316   0.0000       0.519808        14.1447 
 317   0.0000       0.521271        14.1845 
 318   0.0000       0.525451        14.2983 
 319   0.0000       0.528388        14.3782 
 320   0.0000       0.531156        14.4535 
 321   0.0000       0.535269        14.5654 
 322   0.0000       0.538162        14.6441 
 323   0.0000       0.540184        14.6992 
 324   0.0000       0.542311        14.7570 
 325   0.0000       0.544701        14.8221 
 326   0.0000       0.549299        14.9472 
 327   0.0000       0.551742        15.0137 
 328   0.0000       0.553892        15.0722 
 329   0.0000       0.555537        15.1169 
 330   0.0000       0.558897        15.2084 
 331   0.0000       0.559226        15.2173 
 332   0.0000       0.560245        15.2450 
 333   0.0000       0.561539        15.2803 
 334   0.0000       0.564471        15.3600 
 335   0.0000       0.566719        15.4212 
 336   0.0000       0.568826        15.4785 
 337   0.0000       0.571959        15.5638 
 338   0.0000       0.573759        15.6128 
 339   0.0000       0.574689        15.6381 
 340   0.0000       0.577670        15.7192 
 341   0.0000       0.583148        15.8683 
 342   0.0000       0.585933        15.9440 
 343   0.0000       0.588015        16.0007 
 344   0.0000       0.592536        16.1237 
 345   0.0000       0.593862        16.1598 
 346   0.0000       0.597324        16.2540 
 347   0.0000       0.598592        16.2885 
 348   0.0000       0.600066        16.3286 
 349   0.0000       0.605717        16.4824 
 350   0.0000       0.608641        16.5620 
 351   0.0000       0.612025        16.6540 
 352   0.0000       0.615840        16.7578 
 353   0.0000       0.623888        16.9768 
 354   0.0000       0.625023        17.0077 
 355   0.0000       0.626119        17.0376 
 356   0.0000       0.630527        17.1575 
 357   0.0000       0.635369        17.2893 
 358   0.0000       0.642677        17.4881 
 359   0.0000       0.648697        17.6520 
 360   0.0000       0.650445        17.6995 
 361   0.0000       0.653623        17.7860 
 362   0.0000       0.654701        17.8153 
 363   0.0000       0.659163        17.9367 
 364   0.0000       0.666515        18.1368 
 365   0.0000       0.667934        18.1754 
 366   0.0000       0.670356        18.2413 
 367   0.0000       0.674134        18.3441 
 368   0.0000       0.677533        18.4366 
 369   0.0000       0.682019        18.5587 
 370   0.0000       0.684355        18.6223 
 371   0.0000       0.686034        18.6679 
 372   0.0000       0.688937        18.7469 
 373   0.0000       0.693719        18.8771 
 374   0.0000       0.695861        18.9353 
 375   0.0000       0.699057        19.0223 
 376   0.0000       0.701537        19.0898 
 377   0.0000       0.704034        19.1577 
 378   0.0000       0.705074        19.1860 
 379   0.0000       0.706509        19.2251 
 380   0.0000       0.713110        19.4047 
 381   0.0000       0.717726        19.5303 
 382   0.0000       0.721170        19.6240 
 383   0.0000       0.722560        19.6619 
 384   0.0000       0.725029        19.7291 
 385   0.0000       0.727382        19.7931 
 386   0.0000       0.731581        19.9073 
 387   0.0000       0.737020        20.0553 
 388   0.0000       0.739554        20.1243 
 389   0.0000       0.742600        20.2072 
 390   0.0000       0.748303        20.3624 
 391   0.0000       0.750167        20.4131 
 392   0.0000       0.752425        20.4745 
 393   0.0000       0.755040        20.5457 
 394   0.0000       0.759144        20.6574 
 395   0.0000       0.760298        20.6888 
 396   0.0000       0.762884        20.7591 
 397   0.0000       0.763852        20.7855 
 398   0.0000       0.765367        20.8267 
 399   0.0000       0.767906        20.8958 
 400   0.0000       0.771201        20.9854 
 401   0.0000       0.773217        21.0403 
 402   0.0000       0.775995        21.1159 
 403   0.0000       0.779120        21.2009 
 404   0.0000       0.780634        21.2421 
 405   0.0000       0.782888        21.3035 
 406   0.0000       0.786059        21.3897 
 407   0.0000       0.789175        21.4745 
 408   0.0000       0.792349        21.5609 
 409   0.0000       0.796637        21.6776 
 410   0.0000       0.800723        21.7888 
 411   0.0000       0.804429        21.8896 
 412   0.0000       0.806229        21.9386 
 413   0.0000       0.809643        22.0315 
 414   0.0000       0.813028        22.1236 
 415   0.0000       0.814439        22.1620 
 416   0.0000       0.817979        22.2583 
 417   0.0000       0.823862        22.4184 
 418   0.0000       0.825853        22.4726 
 419   0.0000       0.829076        22.5603 
 420   0.0000       0.830257        22.5924 
 421   0.0000       0.834841        22.7172 
 422   0.0000       0.838048        22.8044 
 423   0.0000       0.841333        22.8938 
 424   0.0000       0.844086        22.9687 
 425   0.0000       0.847891        23.0723 
 426   0.0000       0.850741        23.1498 
 427   0.0000       0.852145        23.1880 
 428   0.0000       0.855132        23.2693 
 429   0.0000       0.857456        23.3326 
 430   0.0000       0.859602        23.3910 
 431   0.0000       0.864647        23.5282 
 432   0.0000       0.871035        23.7021 
 433   0.0000       0.874634        23.8000 
 434   0.0000       0.875659        23.8279 
 435   0.0000       0.876481        23.8503 
 436   0.0000       0.885730        24.1019 
 437   0.0000       0.890353        24.2277 
 438   0.0000       0.892003        24.2726 
 439   0.0000       0.897204        24.4142 
 440   0.0000       0.901382        24.5279 
 441   0.0000       0.902105        24.5475 
 442   0.0000       0.904004        24.5992 
 443   0.0000       0.909250        24.7419 
 444   0.0000       0.915538        24.9130 
 445   0.0000       0.917031        24.9537 
 446   0.0000       0.918584        24.9959 
 447   0.0000       0.921133        25.0653 
 448   0.0000       0.926776        25.2189 
 449   0.0000       0.928683        25.2707 
 450   0.0000       0.933244        25.3948 
 451   0.0000       0.934121        25.4187 
 452   0.0000       0.936503        25.4835 
 453   0.0000       0.940637        25.5960 
 454   0.0000       0.943312        25.6688 
 455   0.0000       0.947362        25.7790 
 456   0.0000       0.948824        25.8188 
 457   0.0000       0.955638        26.0042 
 458   0.0000       0.957187        26.0464 
 459   0.0000       0.962498        26.1909 
 460   0.0000       0.964375        26.2420 
 461   0.0000       0.967083        26.3157 
 462   0.0000       0.975021        26.5317 
 463   0.0000       0.978710        26.6321 
 464   0.0000       0.980373        26.6773 
 465   0.0000       0.983464        26.7614 
 466   0.0000       0.985235        26.8096 
 467   0.0000       0.990460        26.9518 
 468   0.0000       0.994681        27.0666 
 469   0.0000       1.001319        27.2473 
 470   0.0000       1.003307        27.3014 
 471   0.0000       1.007309        27.4103 
 472   0.0000       1.008947        27.4548 
 473   0.0000       1.016775        27.6679 
 474   0.0000       1.026762        27.9396 
 475   0.0000       1.030592        28.0438 
 476   0.0000       1.032743        28.1024 
 477   0.0000       1.039856        28.2959 
 478   0.0000       1.043936        28.4069 
 479   0.0000       1.045887        28.4600 
 480   0.0000       1.049284        28.5525 
 481   0.0000       1.050222        28.5780 
 482   0.0000       1.055273        28.7154 
 483   0.0000       1.063500        28.9393 
 484   0.0000       1.070320        29.1249 
 485   0.0000       1.076591        29.2955 
 486   0.0000       1.081703        29.4346 
 487   0.0000       1.084035        29.4981 
 488   0.0000       1.089534        29.6477 
 489   0.0000       1.093560        29.7573 
 490   0.0000       1.099687        29.9240 
 491   0.0000       1.101692        29.9786 
 492   0.0000       1.103405        30.0252 
 493   0.0000       1.103830        30.0367 
 494   0.0000       1.111041        30.2330 
 495   0.0000       1.120536        30.4913 
 496   0.0000       1.124543        30.6004 
 497   0.0000       1.134829        30.8803 
 498   0.0000       1.136163        30.9166 
 499   0.0000       1.139023        30.9944 
 500   0.0000       1.141020        31.0487 
 501   0.0000       1.142514        31.0894 
 502   0.0000       1.145108        31.1600 
 503   0.0000       1.148863        31.2622 
 504   0.0000       1.155820        31.4515 
 505   0.0000       1.158387        31.5213 
 506   0.0000       1.161665        31.6105 
 507   0.0000       1.166216        31.7343 
 508   0.0000       1.176522        32.0148 
 509   0.0000       1.180577        32.1251 
 510   0.0000       1.183122        32.1944 
 511   0.0000       1.188382        32.3375 
 512   0.0000       1.190438        32.3935 
 513   0.0000       1.199602        32.6428 
 514   0.0000       1.202883        32.7321 
 515   0.0000       1.210251        32.9326 
 516   0.0000       1.215966        33.0881 
 517   0.0000       1.222334        33.2614 
 518   0.0000       1.227379        33.3987 
 519   0.0000       1.231079        33.4994 
 520   0.0000       1.234486        33.5921 
 521   0.0000       1.237193        33.6657 
 522   0.0000       1.242660        33.8145 
 523   0.0000       1.244591        33.8671 
 524   0.0000       1.252728        34.0885 
 525   0.0000       1.253932        34.1212 
 526   0.0000       1.262687        34.3595 
 527   0.0000       1.263327        34.3769 
 528   0.0000       1.268486        34.5173 
 529   0.0000       1.271802        34.6075 
 530   0.0000       1.276095        34.7243 
 531   0.0000       1.279973        34.8298 
 532   0.0000       1.288434        35.0601 
 533   0.0000       1.290772        35.1237 
 534   0.0000       1.295564        35.2541 
 535   0.0000       1.297920        35.3182 
 536   0.0000       1.303365        35.4664 
 537   0.0000       1.307357        35.5750 
 538   0.0000       1.311978        35.7007 
 539   0.0000       1.313948        35.7544 
 540   0.0000       1.316827        35.8327 
 541   0.0000       1.321471        35.9591 
 542   0.0000       1.322738        35.9935 
 543   0.0000       1.326564        36.0976 
 544   0.0000       1.331050        36.2197 
 545   0.0000       1.331700        36.2374 
 546   0.0000       1.333706        36.2920 
 547   0.0000       1.337090        36.3841 
 548   0.0000       1.342859        36.5411 
 549   0.0000       1.350507        36.7492 
[...]
 221   8.993     137.9   0.002538   0.002105   1.151264   1.548780     0.13 (  89->  99)    0.05 (  86->  99)    0.04 (  86->  98)
 222   9.016     137.5   0.022946   0.019433  18.119834  15.537249     0.08 (  93-> 104)    0.07 (  93-> 133)    0.03 (  93-> 105)
 223   9.027     137.3   0.031416   0.028888  12.869014  12.654437     0.15 (  93-> 105)    0.10 (  93-> 104)    0.04 (  78-> 104)
 224   9.037     137.2   0.012155   0.010349  -1.449193  -0.677145     0.03 (  62->  96)    0.02 (  62->  97)    0.02 (  93-> 133)
 225   9.049     137.0   0.006525   0.005985  19.327096  18.297580     0.15 (  95-> 134)    0.06 (  95-> 136)    0.05 (  88-> 112)
 226   9.058     136.9   0.004360   0.003810  -0.611098   1.048771     0.09 (  93-> 105)    0.08 (  93-> 133)    0.05 (  93-> 104)
 227   9.059     136.9   0.016529   0.015185  -5.768947  -5.097296     0.10 (  92-> 101)    0.06 (  91-> 101)    0.03 (  83-> 107)
 228   9.066     136.8   0.001559   0.001607  13.504124  14.491278     0.10 (  90-> 125)    0.07 (  86-> 118)    0.05 (  89-> 125)
 229   9.074     136.6   0.002860   0.002451  -6.076965  -5.974864     0.11 (  92-> 101)    0.07 (  91-> 101)    0.03 (  89-> 120)
 230   9.079     136.6   0.005147   0.004190  -5.163247  -3.602869     0.04 (  89->  98)    0.03 (  95-> 108)    0.03 (  81-> 108)
 231   9.081     136.5   0.009528   0.007705  24.741629  22.445752     0.04 (  89-> 120)    0.04 (  86-> 125)    0.04 (  88-> 120)
 232   9.095     136.3   0.005020   0.004799  -17.794098  -17.837258     0.04 (  86->  98)    0.03 (  89->  99)    0.03 (  86-> 100)
 233   9.103     136.2   0.027315   0.025999  -7.039670   0.599764     0.08 (  95-> 109)    0.03 (  80-> 102)    0.02 (  91-> 109)
 234   9.109     136.1   0.012224   0.010288  17.270654  16.812779     0.07 (  93-> 104)    0.04 (  92-> 104)    0.03 (  93-> 105)
 235   9.117     136.0   0.015579   0.012730  -10.320098  -9.739900     0.10 (  88->  99)    0.05 (  86->  98)    0.05 (  87->  99)
 236   9.129     135.8   0.041409   0.037353  36.021400  35.771468     0.03 (  93-> 104)    0.03 (  82-> 108)    0.03 (  93-> 105)
 237   9.134     135.7   0.011231   0.010180   1.713709   2.207728     0.07 (  88->  98)    0.06 (  86->  99)    0.06 (  88->  99)
 238   9.148     135.5   0.002426   0.002185  -10.134207  -10.319802     0.12 (  87-> 101)    0.07 (  88-> 101)    0.04 (  93-> 133)
 239   9.151     135.5   0.000472   0.000452  -0.982647  -1.427453     0.31 (  87-> 101)    0.16 (  88-> 101)    0.07 (  84-> 101)
 240   9.159     135.4   0.053528   0.046653  -56.074859  -52.462312     0.03 (  75-> 106)    0.02 (  87-> 101)    0.02 (  50->  96)
 241   9.166     135.3   0.009972   0.007788  -35.169483  -31.445365     0.03 (  93-> 105)    0.03 (  94-> 121)    0.02 (  62->  96)
 242   9.176     135.1   0.010227   0.009512  15.015680  14.757133     0.03 (  92-> 108)    0.03 (  81-> 108)    0.03 (  86-> 120)
 243   9.179     135.1   0.011615   0.010025  -37.344824  -32.240046     0.05 (  86-> 111)    0.02 (  75-> 106)    0.02 (  76->  98)
 244   9.199     134.8   0.053937   0.047169  26.062141  24.546770     0.03 (  92-> 105)    0.02 (  66-> 102)    0.02 (  95-> 137)
 245   9.207     134.7   0.019369   0.017371  12.781499  14.048810     0.13 (  95-> 138)    0.04 (  88->  99)    0.03 (  95-> 137)
 246   9.224     134.4   0.010377   0.010076  -3.405410  -3.040281     0.04 (  65-> 101)    0.04 (  88->  99)    0.03 (  88-> 100)
 247   9.234     134.3   0.012726   0.012595   2.131801   2.330504     0.04 (  95-> 109)    0.02 (  95-> 138)    0.02 (  94-> 112)
 248   9.245     134.1   0.006023   0.005322  -4.436234  -4.979720     0.06 (  68-> 102)    0.04 (  75-> 107)    0.04 (  75->  96)
 249   9.251     134.0   0.008303   0.007621  -26.047275  -24.952415     0.07 (  95-> 138)    0.05 (  88->  98)    0.04 (  88-> 100)
 250   9.258     133.9   0.014429   0.011865   8.516189   8.418951     0.07 (  95-> 138)    0.05 (  65-> 101)    0.03 (  88-> 100)
 251   9.268     133.8   0.013017   0.012628  -12.056946  -12.261770     0.03 (  82->  98)    0.02 (  95-> 109)    0.02 (  85->  97)
 252   9.286     133.5   0.020266   0.017540  -22.386125  -20.342992     0.14 (  74->  96)    0.04 (  71-> 101)    0.04 (  74->  97)
 253   9.296     133.4   0.004128   0.003495   6.798878   5.931021     0.02 (  66-> 102)    0.02 (  87-> 100)    0.02 (  92-> 107)
 254   9.302     133.3   0.005474   0.004206   3.414926   2.547309     0.03 (  92-> 114)    0.02 (  89-> 118)    0.02 (  88-> 118)
 255   9.314     133.1   0.020393   0.018018  -4.898371  -4.745156     0.10 (  87-> 100)    0.05 (  84-> 103)    0.05 (  88-> 100)
 256   9.319     133.0   0.008812   0.007786   0.694703  -0.073017     0.11 (  74->  96)    0.04 (  72->  96)    0.03 (  74->  97)
 257   9.337     132.8   0.000970   0.001143  -7.266856  -8.074210     0.04 (  72->  96)    0.04 (  95-> 110)    0.02 (  95-> 108)
 258   9.338     132.8   0.017158   0.013907  12.850954  13.046079     0.03 (  74->  96)    0.03 (  67-> 102)    0.02 (  87-> 107)
 259   9.349     132.6   0.005007   0.003940  -4.015944  -4.250448     0.15 (  72->  96)    0.08 (  71->  96)    0.05 (  71->  97)
 260   9.357     132.5   0.002570   0.002227  -5.698925  -5.936627     0.03 (  95-> 142)    0.03 (  81-> 108)    0.02 (  72->  96)
 261   9.368     132.4   0.019872   0.018522  22.732962  20.826217     0.02 (  81-> 108)    0.02 (  92-> 102)    0.02 (  52->  96)
 262   9.379     132.2   0.014393   0.012041  -30.860956  -25.723898     0.04 (  92-> 103)    0.02 (  85-> 109)    0.02 (  64-> 100)
 263   9.384     132.1   0.026805   0.023085  36.183568  33.838821     0.05 (  65-> 101)    0.02 (  92-> 103)    0.02 (  85-> 109)
 264   9.386     132.1   0.023181   0.020081  -19.573902  -17.619749     0.03 (  95-> 142)    0.03 (  95-> 110)    0.03 (  65-> 101)
 265   9.394     132.0   0.030363   0.025709  -31.074272  -28.587996     0.11 (  75-> 106)    0.07 (  75->  96)    0.03 (  61->  97)
 266   9.412     131.7   0.006536   0.005741   9.476673   7.176819     0.02 (  59->  96)    0.02 (  77-> 102)    0.02 (  77->  96)
 267   9.417     131.7   0.014297   0.012767  12.171189  10.774529     0.12 (  95-> 110)    0.05 (  93-> 105)    0.04 (  93-> 116)
 268   9.427     131.5   0.022085   0.017683  -21.968370  -19.627740     0.06 (  95-> 110)    0.03 (  92-> 103)    0.03 (  65-> 101)
 269   9.435     131.4   0.002651   0.001871   0.252124  -0.044835     0.03 (  68-> 102)    0.03 (  95-> 110)    0.03 (  87-> 107)
 270   9.443     131.3   0.024402   0.021592  19.338107  20.708675     0.07 (  95-> 110)    0.03 (  91-> 103)    0.03 (  85-> 100)
 271   9.459     131.1   0.013721   0.011847   3.952725   3.571278     0.04 (  65-> 101)    0.02 (  91-> 103)    0.02 (  95-> 110)
 272   9.461     131.1   0.006007   0.004519   1.792741   0.289219     0.24 (  95-> 110)    0.02 (  83-> 110)    0.02 (  81-> 112)
 273   9.465     131.0   0.004305   0.003264   4.944898   4.312778     0.06 (  95-> 110)    0.06 (  95-> 140)    0.03 (  95-> 139)
 274   9.488     130.7   0.004831   0.004505  -4.923730  -4.638169     0.06 (  95-> 140)    0.03 (  95-> 139)    0.02 (  92-> 120)
 275   9.492     130.6   0.015468   0.014060  -17.027388  -16.271135     0.11 (  87-> 103)    0.06 (  88-> 103)    0.05 (  84-> 100)
 276   9.499     130.5   0.008706   0.007951  -14.471670  -13.778894     0.10 (  87-> 103)    0.07 (  84-> 100)    0.05 (  88-> 103)
 277   9.509     130.4   0.009286   0.008072  16.720065  15.497232     0.05 (  84-> 102)    0.03 (  84-> 100)    0.03 (  87-> 102)
 278   9.519     130.2   0.007340   0.007067  -0.220001  -0.020770     0.04 (  94-> 111)    0.02 (  92-> 116)    0.02 (  95-> 121)
 279   9.535     130.0   0.004142   0.003887   4.778242   4.377625     0.03 (  81->  98)    0.02 (  93-> 140)    0.02 (  93-> 139)
 280   9.538     130.0   0.005084   0.004046   9.747442   9.031527     0.08 (  84-> 102)    0.05 (  87-> 102)    0.03 (  88-> 102)
 281   9.563     129.7   0.020777   0.014770  44.043226  38.553297     0.03 (  95-> 121)    0.03 (  94-> 121)    0.03 (  92-> 132)
 282   9.566     129.6   0.009399   0.008610   5.792490   6.978970     0.03 (  92-> 132)    0.03 (  79-> 108)    0.02 (  93-> 121)
 283   9.574     129.5   0.007624   0.006799   1.454691   1.583881     0.03 (  79-> 111)    0.03 (  91-> 101)    0.03 (  64-> 101)
 284   9.585     129.4   0.001121   0.001216   5.647319   5.543914     0.13 (  64-> 101)    0.12 (  91-> 101)    0.08 (  85-> 101)
 285   9.588     129.3   0.012702   0.012386  -0.363954  -0.294678     0.04 (  83->  98)    0.03 (  80-> 108)    0.02 (  82->  98)
 286   9.601     129.1   0.010647   0.009285   9.393281   9.143928     0.08 (  95-> 145)    0.04 (  71->  96)    0.02 (  86-> 113)
 287   9.608     129.0   0.004749   0.005140   1.053933   1.716299     0.05 (  80-> 108)    0.03 (  81->  98)    0.02 (  95-> 145)
 288   9.611     129.0   0.005096   0.003998  -0.817055  -0.883601     0.06 (  86-> 113)    0.03 (  86-> 119)    0.03 (  86-> 117)
 289   9.626     128.8   0.011101   0.008269  -11.651215  -9.942278     0.07 (  95-> 145)    0.03 (  94-> 141)    0.03 (  80-> 107)
 290   9.631     128.7   0.002541   0.002090  -7.023757  -6.237989     0.04 (  92-> 104)    0.03 (  80-> 108)    0.02 (  71->  96)
 291   9.633     128.7   0.040387   0.032598  -4.366156  -6.056918     0.11 (  79-> 108)    0.05 (  79-> 107)    0.05 (  94-> 141)
 292   9.642     128.6   0.004223   0.002871  -2.680699  -2.118925     0.03 (  95-> 142)    0.03 (  94-> 141)    0.02 (  92-> 104)
 293   9.653     128.4   0.002476   0.002164  -2.602735  -2.788756     0.06 (  71->  96)    0.04 (  70->  96)    0.03 (  92-> 104)
 294   9.666     128.3   0.007666   0.006258  -4.928185  -4.539682     0.03 (  95-> 115)    0.02 (  93-> 139)    0.02 (  95-> 144)
 295   9.671     128.2   0.047604   0.041178  -10.568051  -14.348323     0.08 (  95-> 145)    0.05 (  79-> 108)    0.03 (  79-> 107)
 296   9.679     128.1   0.002468   0.001519   6.551945   5.492899     0.08 (  71->  96)    0.05 (  70->  96)    0.04 (  94-> 141)
 297   9.680     128.1   0.006372   0.005488  -27.104294  -25.015071     0.03 (  89-> 131)    0.03 (  90-> 131)    0.02 (  91-> 117)
 298   9.686     128.0   0.023924   0.019279  -37.695392  -33.807588     0.06 (  90-> 131)    0.03 (  89-> 102)    0.03 (  91-> 131)
 299   9.694     127.9   0.002041   0.001532  -3.691002  -2.211116     0.03 (  51->  96)    0.03 (  66->  96)    0.03 (  79-> 111)
 300   9.705     127.7   0.005102   0.005493  -9.814872  -10.509984     0.19 (  89-> 102)    0.07 (  86-> 102)    0.02 (  86-> 117)
 301   9.708     127.7   0.010971   0.009893  -13.409827  -13.955778     0.07 (  89-> 102)    0.02 (  80-> 102)    0.02 (  85-> 101)
 302   9.715     127.6   0.003729   0.003244  -13.033771  -11.553924     0.05 (  95-> 145)    0.03 (  89-> 102)    0.02 (  90-> 131)
 303   9.720     127.6   0.017806   0.016396  39.964608  39.224807     0.05 (  94-> 141)    0.04 (  82-> 121)    0.02 (  83-> 121)
 304   9.724     127.5   0.002287   0.002035   2.209069   1.979119     0.10 (  85-> 101)    0.03 (  91-> 101)    0.03 (  62-> 101)
 305   9.735     127.4   0.007251   0.006018  -11.945720  -10.456675     0.05 (  82-> 121)    0.03 (  95-> 145)    0.03 (  93-> 141)
 306   9.738     127.3   0.002900   0.002788  -7.241904  -6.037264     0.03 (  95-> 145)    0.03 (  85-> 101)    0.02 (  80-> 102)
 307   9.750     127.2   0.028739   0.025102  14.950826  12.463656     0.05 (  89-> 123)    0.04 (  90-> 135)    0.04 (  90-> 128)
 308   9.757     127.1   0.032534   0.025705  22.480847  19.778508     0.03 (  68->  96)    0.02 (  51->  96)    0.02 (  84-> 109)
 309   9.764     127.0   0.003622   0.003222  -0.809383  -2.030659     0.09 (  85-> 101)    0.06 (  62-> 100)    0.04 (  64-> 101)
 310   9.771     126.9   0.005146   0.003772  -8.705626  -7.097506     0.06 (  89-> 131)    0.04 (  89-> 130)    0.04 (  89-> 120)
 311   9.779     126.8   0.019318   0.017280  -6.379413  -6.246975     0.04 (  90-> 134)    0.02 (  93-> 141)    0.02 (  89-> 118)
 312   9.783     126.7   0.005644   0.005368  16.354149  17.719349     0.02 (  89-> 131)    0.02 (  78->  98)    0.02 (  93-> 141)
 313   9.792     126.6   0.011238   0.008319  -8.210042  -7.409251     0.12 (  90-> 102)    0.03 (  90-> 111)    0.03 (  91-> 102)
 314   9.797     126.6   0.020627   0.019204  -18.623501  -18.881083     0.05 (  94-> 141)    0.02 (  90-> 102)    0.02 (  80-> 108)
 315   9.801     126.5   0.003185   0.003046  -8.211360  -9.818144     0.03 (  81-> 121)    0.03 (  90-> 136)    0.03 (  89-> 130)
 316   9.808     126.4   0.013659   0.011768  -14.296105  -14.441817     0.05 (  80-> 108)    0.02 (  93-> 141)    0.02 (  94-> 111)
 317   9.819     126.3   0.012858   0.012032  -10.704588  -10.386772     0.05 (  90-> 102)    0.03 (  89-> 122)    0.03 (  92-> 119)
 318   9.828     126.2   0.000935   0.000230  -2.291895  -0.884424     0.06 (  90-> 102)    0.03 (  93-> 141)    0.02 (  90-> 111)
 319   9.836     126.1   0.001313   0.001093  -5.013536  -3.516369     0.13 (  87-> 104)    0.07 (  88-> 104)    0.04 (  87-> 103)
 320   9.844     125.9   0.013053   0.010762  -20.242913  -15.060207     0.04 (  87-> 104)    0.03 (  89-> 102)    0.02 (  95-> 116)
 321   9.856     125.8   0.012647   0.010209   9.949720   8.807846     0.09 (  90-> 131)    0.04 (  90-> 120)    0.04 (  89-> 135)
 322   9.858     125.8   0.011984   0.009209   0.025366  -0.024545     0.05 (  87-> 104)    0.04 (  53->  96)    0.03 (  53->  97)
 323   9.865     125.7   0.059724   0.046591  143.403992  127.100996     0.06 (  81-> 121)    0.03 (  81-> 118)    0.02 (  82-> 118)
 324   9.874     125.6   0.005106   0.003697  12.682108   9.595428     0.05 (  94-> 140)    0.04 (  92-> 127)    0.03 (  94-> 139)
 325   9.880     125.5   0.057783   0.044588  16.695825  15.626874     0.04 (  94-> 143)    0.03 (  81-> 121)    0.03 (  94-> 146)
 326   9.883     125.4   0.005670   0.004361  -1.816595  -2.468871     0.05 (  80-> 116)    0.05 (  80->  98)    0.03 (  87-> 104)
 327   9.890     125.4   0.018679   0.017293  21.458350  22.230626     0.04 (  68->  96)    0.03 (  77-> 107)    0.02 (  80->  98)
 328   9.918     125.0   0.019308   0.017115  -16.326135  -15.801694     0.04 (  79->  98)    0.04 (  84-> 101)    0.03 (  80-> 117)
 329   9.926     124.9   0.003574   0.003207  -6.226458  -5.871759     0.03 (  79->  98)    0.02 (  91-> 105)    0.02 (  87-> 104)
 330   9.934     124.8   0.010916   0.010391  33.675898  32.561147     0.10 (  84-> 101)    0.04 (  94-> 111)    0.04 (  94-> 116)
 331   9.937     124.8   0.010996   0.009792  13.165698  12.421951     0.03 (  84-> 101)    0.02 (  95-> 121)    0.02 (  79->  98)
 332   9.943     124.7   0.019787   0.017389  31.522376  29.291731     0.07 (  84-> 101)    0.07 (  79->  98)    0.05 (  79-> 116)
 333   9.950     124.6   0.010913   0.010222  11.468733  11.385657     0.24 (  84-> 101)    0.04 (  79-> 116)    0.04 (  79->  98)
 334   9.965     124.4   0.006587   0.005906  10.932327   4.671309     0.06 (  93-> 141)    0.04 (  95-> 115)    0.04 (  94-> 112)
 335   9.975     124.3   0.005767   0.005583  -30.663694  -30.251346     0.04 (  90-> 111)    0.03 (  85-> 100)    0.02 (  90-> 102)
 336   9.977     124.3   0.009974   0.009049  -5.100197  -4.347070     0.09 (  86-> 114)    0.06 (  89-> 114)    0.05 (  84-> 101)
 337   9.985     124.2   0.024109   0.020987  33.617538  34.420338     0.06 (  90-> 111)    0.03 (  89-> 102)    0.03 (  90-> 105)
 338   9.989     124.1   0.006573   0.005590  -4.293930  -3.944007     0.04 (  89-> 111)    0.03 (  90-> 102)    0.02 (  92-> 124)
 339   9.997     124.0   0.013568   0.012142  -33.081207  -31.264932     0.05 (  89-> 111)    0.04 (  94-> 112)    0.04 (  86-> 102)

sTD-DFT done

Total run time:       69.814 sec

           *** ORCA-CIS/TD-DFT FINISHED WITHOUT ERROR ***


-------------------------------------------------------------------------------
                          DFT DISPERSION CORRECTION                            
                                                                               
                              DFTD3 V3.1  Rev 1                                
                              USING zero damping                               
-------------------------------------------------------------------------------
The omegaB97X-D3 functional is recognized. Fit by Chai et al.
Active option DFTDOPT                   ...         3   

molecular C6(AA) [au] = 65530.581633 


            DFT-D V3
 parameters
 s6 scaling factor         :     1.0000 
 rs6 scaling factor        :     1.2810 
 s8 scaling factor         :     1.0000 
 rs8 scaling factor        :     1.0940 
 Damping factor alpha6     :    14.0000 
 Damping factor alpha8     :    16.0000 
 ad hoc parameters k1-k3   :    16.0000     1.3333    -4.0000 

 Edisp/kcal,au: -19.428178316555  -0.030960769593 
 E6   /kcal   :  -9.482336618 
 E8   /kcal   :  -9.945841699 
 % E8         :  51.192868096 

-------------------------   ----------------
Dispersion correction           -0.030960770
-------------------------   ----------------


-------------------------   --------------------
FINAL SINGLE POINT ENERGY     -2433.844145087169
-------------------------   --------------------


                            ***************************************
                            *     ORCA property calculations      *
                            ***************************************

                                    ---------------------
                                    Active property flags
                                    ---------------------
   (+) Dipole Moment
   (+) Quadrupole Moment


------------------------------------------------------------------------------
                       ORCA ELECTRIC PROPERTIES CALCULATION
------------------------------------------------------------------------------

Dipole Moment Calculation                       ... on
Quadrupole Moment Calculation                   ... on
Polarizability Calculation                      ... off
GBWName                                         ... total_job2.gbw
Electron density file                           ... total_job2.scfp.tmp

-------------
DIPOLE MOMENT
-------------
                                X             Y             Z
Electronic contribution:     31.09809      -2.32319       2.40721
Nuclear contribution   :    -31.52126       1.85380      -4.89726
                        -----------------------------------------
Total Dipole Moment    :     -0.42317      -0.46939      -2.49005
                        -----------------------------------------
Magnitude (a.u.)       :      2.56900
Magnitude (Debye)      :      6.52988


------------------------
QUADRUPOLE MOMENT (A.U.)
------------------------

                XX           YY           ZZ           XY           XZ           YZ
  NUC     47576.10921   1176.21896   3437.09664   1975.79600    611.19883    244.54617
  EL     -47699.23016  -1364.81774  -3624.33014  -1975.53264   -628.90080   -243.13810
  TOT      -123.12095   -188.59879   -187.23350      0.26336    -17.70197      1.40807

--------------------------------------------------------------------------
[[51994,1],3]: A high-performance Open MPI point-to-point messaging module
was unable to find any relevant network interfaces:

Module: OpenFabrics (openib)
  Host: cx1-103-14-2

Another transport will be used instead, although this may result in
lower performance.
--------------------------------------------------------------------------

Timings for individual modules:

Sum of individual times         ...      283.359 sec (=   4.723 min)
GTO integral calculation        ...        8.010 sec (=   0.133 min)   2.8 %
SCF iterations                  ...      201.470 sec (=   3.358 min)  71.1 %
CIS module                      ...       73.879 sec (=   1.231 min)  26.1 %



                             ****ORCA TERMINATED NORMALLY****
TOTAL RUN TIME: 0 days 0 hours 16 minutes 17 seconds 276 msec
