   45
Geometry Step: 1473
    C     -4.36007689     -0.06200578     -2.66368016      4.11312004
    C     -3.82733826     -0.16853329     -1.38147686      4.08068820
    C     -4.65172097      0.09506800     -0.27158292      4.03367956
    C     -6.01921441      0.41490569     -0.50445451      3.86503334
    C     -6.55761465      0.52798325     -1.79553816      4.16233968
    C     -5.70479976      0.29282477     -2.87093336      4.06803789
    C     -4.47602899      0.05792641      1.17134888      4.05576901
    C     -5.76122080      0.31363187      1.73222929      3.86636198
    N     -6.66424263      0.55229257      0.71201113      5.17457879
    C     -6.00834288      0.28915718      3.11310980      4.16127443
    C     -4.93783510     -0.01793226      3.95027611      4.07360708
    C     -3.65836144     -0.25415454      3.42892220      4.12318523
    C     -3.39100729     -0.19867903      2.04884608      3.97537526
    H     -2.83628730     -0.46165450      4.10785855      0.90762403
    H     -7.65073255      0.74427874      0.83626986      0.78392829
    H     -5.09025133     -0.06056166      5.02505868      0.91661152
    H     -2.79142851     -0.46964375     -1.25452485      0.91493272
    H     -7.60368592      0.77937366     -1.94845403      0.91728238
    H     -6.08675897      0.36972832     -3.88531559      0.92067791
    H     -3.72650634     -0.26235734     -3.52312232      0.91845141
    S      3.06480914     -0.74787016      0.65069096      6.09669577
    C      1.57504851      0.13102455      0.22772623      3.82461246
    N      1.76234646      1.05601288     -0.69844982      5.17027648
    N      3.05402082      1.14276813     -1.13433971      5.18958652
    C      3.88717100      0.28864402     -0.55201844      3.80137934
    C      0.30613704     -0.16071411      0.85336652      3.83888637
    N      0.13895133     -1.09534471      1.77889348      5.18215319
    N     -1.15138148     -1.18807665      2.22629902      5.18684967
    C     -1.98750149     -0.35049817      1.63110074      3.81019705
    S     -1.18429558      0.69975293      0.44272645      6.02944171
    C      5.30662847      0.22804428     -0.90454328      4.10507106
    C      6.28406206     -0.57881581     -0.25917764      3.78572004
    C      7.61623210     -0.55263987     -0.69426481      3.88148077
    C      8.02120887      0.26003740     -1.76409843      3.72906663
    C      7.07002318      1.06672753     -2.41098842      4.19737661
    C      5.74759953      1.04141305     -1.98035998      4.10420097
    O      9.32252912      0.24508547     -2.14293017      6.45421915
    O      8.56007346     -1.34055268     -0.05958301      6.50771190
    O      6.03218175     -1.41211083      0.80378777      6.49789536
    H      5.01121245      1.66216073     -2.48052533      0.89208741
    H      9.79278583     -0.37541049     -1.56408731      0.63036156
    H      8.09794192     -1.82276683      0.64540674      0.61906900
    H      5.10571085     -1.37147322      1.08571740      0.62996934
    H     -6.99914103      0.48902274      3.51130578      0.91467092
    H      7.36920067      1.69993150     -3.23860257      0.88846198
