
                                 *****************
                                 * O   R   C   A *
                                 *****************

           --- An Ab Initio, DFT and Semiempirical electronic structure package ---

                  #######################################################
                  #                        -***-                        #
                  #  Department of molecular theory and spectroscopy    #
                  #              Directorship: Frank Neese              #
                  # Max Planck Institute for Chemical Energy Conversion #
                  #                  D-45470 Muelheim/Ruhr              #
                  #                       Germany                       #
                  #                                                     #
                  #                  All rights reserved                #
                  #                        -***-                        #
                  #######################################################


                         Program Version 4.0.0 -  RELEASE  -


 With contributions from (in alphabetic order):
   Daniel Aravena         : Magnetic Properties
   Michael Atanasov       : Ab Initio Ligand Field Theory
   Ute Becker             : Parallelization
   Martin Brehm           : Molecular dynamics
   Dmytro Bykov           : SCF Hessian
   Vijay G. Chilkuri      : MRCI spin determinant printing
   Dipayan Datta          : RHF DLPNO-CCSD density
   Achintya Kumar Dutta   : EOM-CC, STEOM-CC
   Dmitry Ganyushin       : Spin-Orbit,Spin-Spin,Magnetic field MRCI
   Yang Guo               : DLPNO-NEVPT2, CIM, IAO-localization
   Andreas Hansen         : Spin unrestricted coupled pair/coupled cluster methods
   Lee Huntington         : MR-EOM, pCC
   Robert Izsak           : Overlap fitted RIJCOSX, COSX-SCS-MP3, EOM
   Christian Kollmar      : KDIIS, OOCD, Brueckner-CCSD(T), CCSD density
   Simone Kossmann        : Meta GGA functionals, TD-DFT gradient, OOMP2, MP2 Hessian
   Martin Krupicka        : AUTO-CI
   Dagmar Lenk            : GEPOL surface
   Dimitrios Liakos       : Extrapolation schemes; parallel MDCI
   Dimitrios Manganas     : ROCIS; embedding schemes
   Dimitrios Pantazis     : SARC Basis sets
   Taras Petrenko         : DFT Hessian,TD-DFT gradient, ASA, ECA, R-Raman, ABS, FL, XAS/XES, NRVS
   Peter Pinski           : DLPNO-MP2
   Christoph Reimann      : Effective Core Potentials
   Marius Retegan         : Local ZFS, SOC
   Christoph Riplinger    : Optimizer, TS searches, QM/MM, DLPNO-CCSD(T), (RO)-DLPNO pert. Triples
   Tobias Risthaus        : Range-separated hybrids, TD-DFT gradient, RPA, STAB
   Michael Roemelt        : Restricted open shell CIS
   Masaaki Saitow         : Open-shell DLPNO
   Barbara Sandhoefer     : DKH picture change effects
   Kantharuban Sivalingam : CASSCF convergence, NEVPT2, FIC-MRCI
   Georgi Stoychev        : AutoAux
   Boris Wezisla          : Elementary symmetry handling
   Frank Wennmohs         : Technical directorship


 We gratefully acknowledge several colleagues who have allowed us to
 interface, adapt or use parts of their codes:
   Stefan Grimme, W. Hujo, H. Kruse,             : VdW corrections, initial TS optimization,
                  C. Bannwarth                     DFT functionals, gCP, sTDA/sTD-DF
   Ed Valeev                                     : LibInt (2-el integral package), F12 methods
   Garnet Chan, S. Sharma, J. Yang, R. Olivares  : DMRG
   Ulf Ekstrom                                   : XCFun DFT Library
   Mihaly Kallay                                 : mrcc  (arbitrary order and MRCC methods)
   Jiri Pittner, Ondrej Demel                    : Mk-CCSD
   Frank Weinhold                                : gennbo (NPA and NBO analysis)
   Christopher J. Cramer and Donald G. Truhlar   : smd solvation model


 Your calculation uses the libint2 library for the computation of 2-el integrals
 For citations please refer to: http://libint.valeyev.net

 This ORCA versions uses:
   CBLAS   interface :  Fast vector & matrix operations
   LAPACKE interface :  Fast linear algebra routines
   SCALAPACK package :  Parallel linear algebra routines


Your calculation utilizes the atom-pairwise dispersion correction
with the zero-damping scheme (D30)
Cite in your paper:
S.Grimme, J.Antony, S.Ehrlich and H.Krieg, J.Chem.Phys., 132, (2010), 154104 
   

XCFun DFT library Copyright 2009-2010 Ulf Ekstrom and contributors.
See http://admol.org/xcfun for more information. This is free soft-
ware; see the source code for copying conditions. There is ABSOLUTELY
NO WARRANTY; not even for MERCHANTABILITY or FITNESS FOR A PARTICULAR
PURPOSE. For details see the documentation. Scientific users of this 
library should cite U. Ekstrom, L. Visscher, R. Bast, A. J. Thorvald-
sen and K. Ruud; J.Chem.Theor.Comp. 2010, DOI: 10.1021/ct100117s
XCFun Version 0.99 
Your calculation utilizes the basis: def2-TZVP
   F. Weigend and R. Ahlrichs, Phys. Chem. Chem. Phys. 7, 3297 (2005).

Your calculation utilizes the auxiliary basis: def2/J
   F. Weigend, Phys. Chem. Chem. Phys. 8, 1057 (2006).

================================================================================
                                        WARNINGS
                       Please study these warnings very carefully!
================================================================================

Warning: TCutStore was < 0. Adjusted to Thresh (uncritical)
INFO   : Checking CIS options ...

WARNING: CIS/ROCIS methods need fully converged wavefunctions
  ===> : Setting SCFConvForced true
         You can overwrite this default with %scf ConvForced false 


INFO   : the flag for use of LIBINT has been found!

Your calculation utilizes the atom-pairwise dispersion correction
with the zero-damping scheme (D30)
Cite in your paper:
S.Grimme, J.Antony, S.Ehrlich and H.Krieg, J.Chem.Phys., 132, (2010), 154104 
   

XCFun DFT library Copyright 2009-2010 Ulf Ekstrom and contributors.
See http://admol.org/xcfun for more information. This is free soft-
ware; see the source code for copying conditions. There is ABSOLUTELY
NO WARRANTY; not even for MERCHANTABILITY or FITNESS FOR A PARTICULAR
PURPOSE. For details see the documentation. Scientific users of this 
library should cite U. Ekstrom, L. Visscher, R. Bast, A. J. Thorvald-
sen and K. Ruud; J.Chem.Theor.Comp. 2010, DOI: 10.1021/ct100117s
XCFun Version 0.99 
Your calculation utilizes the basis: def2-TZVP
   F. Weigend and R. Ahlrichs, Phys. Chem. Chem. Phys. 7, 3297 (2005).

Your calculation utilizes the auxiliary basis: def2/J
   F. Weigend, Phys. Chem. Chem. Phys. 8, 1057 (2006).

================================================================================
                                        WARNINGS
                       Please study these warnings very carefully!
================================================================================

INFO   : Checking CIS options ...

INFO   : the flag for use of LIBINT has been found!

================================================================================
                                       INPUT FILE
================================================================================
NAME = total.inp
|  1> # 
|  2> !wB97X-D3 def2-TZVP def2/J RIJCOSX Grid5 FinalGrid6 TightSCF
|  3> %pal 
|  4>  nprocs 24
|  5> end
|  6> %tddft
|  7>   Mode sTDDFT
|  8>   nroots 2
|  9>   Ethresh 10.0
| 10>   maxcore 5000
| 11>   triplets true
| 12> end
| 13> * xyz 0 1 
| 14> C -7.78786240 0.41430189 2.76597231
| 15> C -6.89411104 0.40349843 1.69833473
| 16> C -7.37789400 0.63632687 0.39650835
| 17> C -8.77408977 0.85177598 0.22290465
| 18> C -9.67592923 0.86891804 1.29789279
| 19> C -9.16031769 0.65034904 2.57256505
| 20> C -6.78566393 0.67667464 -0.93190770
| 21> C -7.86621025 0.88865454 -1.83881682
| 22> N -9.04336792 1.00998621 -1.12530646
| 23> C -7.69963839 0.93475256 -3.23099979
| 24> C -6.41214414 0.74922392 -3.72913009
| 25> C -5.32885490 0.54618657 -2.86416123
| 26> C -5.47742222 0.52396839 -1.46465762
| 27> H -4.33387359 0.42805114 -3.28482381
| 28> H -9.96070269 1.15450277 -1.52915261
| 29> H -6.24004619 0.76964603 -4.80135322
| 30> H -5.84194112 0.21143845 1.88101546
| 31> H -10.73711576 1.03990291 1.13841530
| 32> H -9.82817317 0.65527371 3.42973580
| 33> H -7.41826470 0.23629772 3.77191828
| 34> C 1.16482407 -1.21306213 0.53576038
| 35> N 0.92998948 -0.61064136 1.70954503
| 36> O -0.34244319 -0.13769180 1.66259364
| 37> C -0.90149262 -0.43642512 0.47958827
| 38> C 0.00842964 -1.12870711 -0.29600604
| 39> C -2.27236456 -0.01414021 0.22680338
| 40> N -2.98837948 0.66417551 1.13566229
| 41> O -4.20644997 0.88883582 0.57761967
| 42> C -4.26542016 0.36266566 -0.65448817
| 43> C -3.04816290 -0.22576768 -0.94880712
| 44> H -2.76196769 -0.74707879 -1.85054915
| 45> H -0.13337350 -1.51009511 -1.29687678
| 46> C 13.79471780 1.46644421 -0.43253883
| 47> C 13.52771905 2.07879420 0.73020982
| 48> S 12.45926075 1.43354899 2.01126840
| 49> C 11.28099001 0.48200217 1.06437433
| 50> C 11.55114445 -0.13757415 -0.11183323
| 51> S 13.13601727 -0.11866405 -0.93548777
| 52> S 9.60360708 0.40443786 1.66848379
| 53> C 8.98656247 -0.61118661 0.33117205
| 54> S 10.20103400 -0.96632888 -0.93376294
| 55> C 7.70898189 -1.06694267 0.27797471
| 56> S 6.49274596 -0.70511031 1.53812286
| 57> C 5.19286527 -1.68787860 0.81063304
| 58> C 5.46544107 -2.30884893 -0.36431355
| 59> S 7.09103858 -2.07537321 -1.06407408
| 60> S 3.61713322 -1.72885086 1.64505913
| 61> C 2.45729041 -1.84627552 0.26970728
| 62> C 2.74389708 -2.46845412 -0.89650067
| 63> S 4.28500793 -3.27168521 -1.29550615
| 64> H 1.99764206 -2.50281697 -1.68871052
| 65> H 13.96316843 3.05174516 0.95051181
| 66> H -8.54461602 1.09902615 -3.89358640
| 67> H 14.44858522 1.93829388 -1.16370185
| 68> *
| 69> $new_job
| 70> # 
| 71> !wB97X-D3 def2-TZVP def2/J RIJCOSX Grid5 FinalGrid6 TightSCF
| 72> %pal 
| 73>  nprocs 24
| 74> end
| 75> %elprop
| 76>    dipole     true
| 77>    quadrupole true
| 78> end
| 79> %tddft
| 80>   Mode sTDDFT
| 81>   nroots 2
| 82>   Ethresh 10.0
| 83>   maxcore 5000
| 84> end
| 85> * xyz 0 1 
| 86> C -7.78786240 0.41430189 2.76597231
| 87> C -6.89411104 0.40349843 1.69833473
| 88> C -7.37789400 0.63632687 0.39650835
| 89> C -8.77408977 0.85177598 0.22290465
| 90> C -9.67592923 0.86891804 1.29789279
| 91> C -9.16031769 0.65034904 2.57256505
| 92> C -6.78566393 0.67667464 -0.93190770
| 93> C -7.86621025 0.88865454 -1.83881682
| 94> N -9.04336792 1.00998621 -1.12530646
| 95> C -7.69963839 0.93475256 -3.23099979
| 96> C -6.41214414 0.74922392 -3.72913009
| 97> C -5.32885490 0.54618657 -2.86416123
| 98> C -5.47742222 0.52396839 -1.46465762
| 99> H -4.33387359 0.42805114 -3.28482381
|100> H -9.96070269 1.15450277 -1.52915261
|101> H -6.24004619 0.76964603 -4.80135322
|102> H -5.84194112 0.21143845 1.88101546
|103> H -10.73711576 1.03990291 1.13841530
|104> H -9.82817317 0.65527371 3.42973580
|105> H -7.41826470 0.23629772 3.77191828
|106> C 1.16482407 -1.21306213 0.53576038
|107> N 0.92998948 -0.61064136 1.70954503
|108> O -0.34244319 -0.13769180 1.66259364
|109> C -0.90149262 -0.43642512 0.47958827
|110> C 0.00842964 -1.12870711 -0.29600604
|111> C -2.27236456 -0.01414021 0.22680338
|112> N -2.98837948 0.66417551 1.13566229
|113> O -4.20644997 0.88883582 0.57761967
|114> C -4.26542016 0.36266566 -0.65448817
|115> C -3.04816290 -0.22576768 -0.94880712
|116> H -2.76196769 -0.74707879 -1.85054915
|117> H -0.13337350 -1.51009511 -1.29687678
|118> C 13.79471780 1.46644421 -0.43253883
|119> C 13.52771905 2.07879420 0.73020982
|120> S 12.45926075 1.43354899 2.01126840
|121> C 11.28099001 0.48200217 1.06437433
|122> C 11.55114445 -0.13757415 -0.11183323
|123> S 13.13601727 -0.11866405 -0.93548777
|124> S 9.60360708 0.40443786 1.66848379
|125> C 8.98656247 -0.61118661 0.33117205
|126> S 10.20103400 -0.96632888 -0.93376294
|127> C 7.70898189 -1.06694267 0.27797471
|128> S 6.49274596 -0.70511031 1.53812286
|129> C 5.19286527 -1.68787860 0.81063304
|130> C 5.46544107 -2.30884893 -0.36431355
|131> S 7.09103858 -2.07537321 -1.06407408
|132> S 3.61713322 -1.72885086 1.64505913
|133> C 2.45729041 -1.84627552 0.26970728
|134> C 2.74389708 -2.46845412 -0.89650067
|135> S 4.28500793 -3.27168521 -1.29550615
|136> H 1.99764206 -2.50281697 -1.68871052
|137> H 13.96316843 3.05174516 0.95051181
|138> H -8.54461602 1.09902615 -3.89358640
|139> H 14.44858522 1.93829388 -1.16370185
|140> *
|141> 
|142>                          ****END OF INPUT****
================================================================================


                 $$$$$$$$$$$$$$$$$$$$$$$$$$$$$$$$$$$$$$$$$$$$$$ 
                 $ THERE ARE  2 JOBS TO BE PROCESSED THIS RUN $
                 $$$$$$$$$$$$$$$$$$$$$$$$$$$$$$$$$$$$$$$$$$$$$$ 




                 $$$$$$$$$$$$$$$$  JOB NUMBER  1 $$$$$$$$$$$$$$


                       ****************************
                       * Single Point Calculation *
                       ****************************

---------------------------------
CARTESIAN COORDINATES (ANGSTROEM)
---------------------------------
  C     -7.787862    0.414302    2.765972
  C     -6.894111    0.403498    1.698335
  C     -7.377894    0.636327    0.396508
  C     -8.774090    0.851776    0.222905
  C     -9.675929    0.868918    1.297893
  C     -9.160318    0.650349    2.572565
  C     -6.785664    0.676675   -0.931908
  C     -7.866210    0.888655   -1.838817
  N     -9.043368    1.009986   -1.125306
  C     -7.699638    0.934753   -3.231000
  C     -6.412144    0.749224   -3.729130
  C     -5.328855    0.546187   -2.864161
  C     -5.477422    0.523968   -1.464658
  H     -4.333874    0.428051   -3.284824
  H     -9.960703    1.154503   -1.529153
  H     -6.240046    0.769646   -4.801353
  H     -5.841941    0.211438    1.881015
  H    -10.737116    1.039903    1.138415
  H     -9.828173    0.655274    3.429736
  H     -7.418265    0.236298    3.771918
  C      1.164824   -1.213062    0.535760
  N      0.929989   -0.610641    1.709545
  O     -0.342443   -0.137692    1.662594
  C     -0.901493   -0.436425    0.479588
  C      0.008430   -1.128707   -0.296006
  C     -2.272365   -0.014140    0.226803
  N     -2.988379    0.664176    1.135662
  O     -4.206450    0.888836    0.577620
  C     -4.265420    0.362666   -0.654488
  C     -3.048163   -0.225768   -0.948807
  H     -2.761968   -0.747079   -1.850549
  H     -0.133374   -1.510095   -1.296877
  C     13.794718    1.466444   -0.432539
  C     13.527719    2.078794    0.730210
  S     12.459261    1.433549    2.011268
  C     11.280990    0.482002    1.064374
  C     11.551144   -0.137574   -0.111833
  S     13.136017   -0.118664   -0.935488
  S      9.603607    0.404438    1.668484
  C      8.986562   -0.611187    0.331172
  S     10.201034   -0.966329   -0.933763
  C      7.708982   -1.066943    0.277975
  S      6.492746   -0.705110    1.538123
  C      5.192865   -1.687879    0.810633
  C      5.465441   -2.308849   -0.364314
  S      7.091039   -2.075373   -1.064074
  S      3.617133   -1.728851    1.645059
  C      2.457290   -1.846276    0.269707
  C      2.743897   -2.468454   -0.896501
  S      4.285008   -3.271685   -1.295506
  H      1.997642   -2.502817   -1.688711
  H     13.963168    3.051745    0.950512
  H     -8.544616    1.099026   -3.893586
  H     14.448585    1.938294   -1.163702

----------------------------
CARTESIAN COORDINATES (A.U.)
----------------------------
  NO LB      ZA    FRAG     MASS         X           Y           Z
   0 C     6.0000    0    12.011  -14.716927    0.782917    5.226930
   1 C     6.0000    0    12.011  -13.027982    0.762502    3.209388
   2 C     6.0000    0    12.011  -13.942199    1.202484    0.749292
   3 C     6.0000    0    12.011  -16.580627    1.609623    0.421229
   4 C     6.0000    0    12.011  -18.284856    1.642017    2.452662
   5 C     6.0000    0    12.011  -17.310492    1.228982    4.861443
   6 C     6.0000    0    12.011  -12.823046    1.278730   -1.761050
   7 C     6.0000    0    12.011  -14.864983    1.679314   -3.474860
   8 N     7.0000    0    14.007  -17.089489    1.908597   -2.126521
   9 C     6.0000    0    12.011  -14.550208    1.766426   -6.105705
  10 C     6.0000    0    12.011  -12.117196    1.415828   -7.047035
  11 C     6.0000    0    12.011  -10.070076    1.032143   -5.412480
  12 C     6.0000    0    12.011  -10.350828    0.990157   -2.767802
  13 H     1.0000    0     1.008   -8.189834    0.808899   -6.207417
  14 H     1.0000    0     1.008  -18.823000    2.181694   -2.889680
  15 H     1.0000    0     1.008  -11.791978    1.454420   -9.073243
  16 H     1.0000    0     1.008  -11.039669    0.399561    3.554604
  17 H     1.0000    0     1.008  -20.290208    1.965132    2.151293
  18 H     1.0000    0     1.008  -18.572556    1.238288    6.481261
  19 H     1.0000    0     1.008  -14.018489    0.446538    7.127893
  20 C     6.0000    0    12.011    2.201198   -2.292355    1.012440
  21 N     7.0000    0    14.007    1.757425   -1.153945    3.230572
  22 O     8.0000    0    15.999   -0.647124   -0.260200    3.141847
  23 C     6.0000    0    12.011   -1.703574   -0.824724    0.906290
  24 C     6.0000    0    12.011    0.015930   -2.132947   -0.559370
  25 C     6.0000    0    12.011   -4.294147   -0.026721    0.428596
  26 N     7.0000    0    14.007   -5.647219    1.255110    2.146091
  27 O     8.0000    0    15.999   -7.949038    1.679656    1.091543
  28 C     6.0000    0    12.011   -8.060476    0.685339   -1.236803
  29 C     6.0000    0    12.011   -5.760193   -0.426639   -1.792986
  30 H     1.0000    0     1.008   -5.219363   -1.411774   -3.497031
  31 H     1.0000    0     1.008   -0.252039   -2.853666   -2.450742
  32 C     6.0000    0    12.011   26.068239    2.771178   -0.817380
  33 C     6.0000    0    12.011   25.563684    3.928352    1.379897
  34 S    16.0000    0    32.060   23.544591    2.709015    3.800746
  35 C     6.0000    0    12.011   21.317982    0.910852    2.011376
  36 C     6.0000    0    12.011   21.828500   -0.259977   -0.211334
  37 S    16.0000    0    32.060   24.823475   -0.224243   -1.767816
  38 S    16.0000    0    32.060   18.148187    0.764277    3.152977
  39 C     6.0000    0    12.011   16.982142   -1.154975    0.625824
  40 S    16.0000    0    32.060   19.277161   -1.826097   -1.764556
  41 C     6.0000    0    12.011   14.567865   -2.016229    0.525296
  42 S    16.0000    0    32.060   12.269512   -1.332465    2.906631
  43 C     6.0000    0    12.011    9.813093   -3.189628    1.531874
  44 C     6.0000    0    12.011   10.328187   -4.363092   -0.688453
  45 S    16.0000    0    32.060   13.400121   -3.921887   -2.010809
  46 S    16.0000    0    32.060    6.835391   -3.267055    3.108711
  47 C     6.0000    0    12.011    4.643606   -3.488955    0.509673
  48 C     6.0000    0    12.011    5.185214   -4.664702   -1.694141
  49 S    16.0000    0    32.060    8.097491   -6.182589   -2.448152
  50 H     1.0000    0     1.008    3.774996   -4.729639   -3.191200
  51 H     1.0000    0     1.008   26.386564    5.766963    1.796207
  52 H     1.0000    0     1.008  -16.146984    2.076858   -7.357812
  53 H     1.0000    0     1.008   27.303869    3.662845   -2.199078

--------------------------------
INTERNAL COORDINATES (ANGSTROEM)
--------------------------------
 C      0   0   0     0.000000000000     0.00000000     0.00000000
 C      1   0   0     1.392392979901     0.00000000     0.00000000
 C      2   1   0     1.408192798775   119.14669183     0.00000000
 C      3   2   1     1.423347881517   118.34489115   358.93270944
 C      4   3   2     1.403284633627   122.60324696     1.39116279
 C      5   4   3     1.392270461640   117.47916810   359.33411370
 C      3   2   1     1.455009828233   135.13600298   181.50484501
 C      7   3   2     1.426534254622   106.03603513   176.51267497
 N      8   7   3     1.381853316388   109.27148664     1.57674597
 C      8   7   3     1.402870141513   123.08237790   182.53548933
 C     10   8   7     1.392909227416   117.40440527     0.64631358
 C     11  10   8     1.401039211359   120.87757267   359.02041902
 C     12  11  10     1.407542628306   122.31175547   359.74206895
 H     12  11  10     1.086692593737   118.99381667   181.42439180
 H      9   8   7     1.012659779608   125.33061841   180.81298935
 H     11  10   8     1.086138668623   119.80108449   179.52833673
 H      2   1   3     1.085044158357   119.65083153   180.32861415
 H      5   4   3     1.086639658322   121.13823083   179.73288415
 H      6   5   4     1.086644785197   119.59542924   180.06075496
 H      1   2   3     1.086377116356   119.36356624   180.07393710
 C     14  12  11     6.893895290323   122.79605863   186.29247521
 N     21  14  12     1.340085248543   103.80605866   326.11103747
 O     22  21  14     1.358296955386   106.88253493     8.70794297
 C     23  22  21     1.342117568289   110.07058720     0.00000000
 C     24  23  22     1.381578592273   109.39153683     0.05559814
 C     24  23  22     1.456542008219   118.71721949   180.03328944
 N     26  24  23     1.341198754826   122.10580916     0.16679779
 O     27  26  24     1.358521085311   106.49593363   180.14871342
 C     28  27  26     1.341052664877   110.60627841     0.19037326
 C     29  28  27     1.383688070692   108.88062002   359.40614905
 H     30  29  28     1.080190566662   128.01621800   179.27564522
 H     25  24  23     1.080419906909   127.62487310   180.00877757
 C     21  14  12    12.947261224571   133.42095256   210.26977766
 C     33  21  14     1.340986676232    80.52782057   117.07988562
 S     34  33  21     1.788590396166   125.11676240    40.19580391
 C     35  34  33     1.786161153758   101.92061467   329.61483379
 C     36  35  34     1.356584852472   124.86051160    30.28726939
 S     37  36  35     1.786221220543   124.86631918     0.00000000
 S     36  35  34     1.784538583417   117.62932981   213.38056712
 C     39  36  35     1.789033203922    95.49849637   179.13125460
 S     37  36  35     1.784713164034   117.43470758   183.08967806
 C     40  39  36     1.357481374312   122.98997439   177.02532451
 S     42  40  39     1.788330465578   122.99201052     0.00000000
 C     43  42  40     1.784590921827    95.54930296   182.92743164
 C     44  43  42     1.356613875367   117.30864719   358.13542931
 S     45  44  43     1.785145085334   117.55488957   359.79036597
 S     44  43  42     1.783501365057   117.74035975   180.49661618
 C     21  14  12     1.463629970084   134.95819107   155.95234077
 C     48  21  14     1.352512689859   122.87994935   348.78679847
 S     49  48  21     1.783089512335   125.68453554   180.42980262
 H     49  48  21     1.088886498572   119.77622940     0.60371572
 H     34  33  21     1.088477239039   120.26602158   220.99027194
 H     10   8   7     1.086275298128   121.19305434   180.05501672
 H     33  21  14     1.088477871081   136.54740976   352.53922529

---------------------------
INTERNAL COORDINATES (A.U.)
---------------------------
 C      0   0   0     0.000000000000     0.00000000     0.00000000
 C      1   0   0     2.631241402808     0.00000000     0.00000000
 C      2   1   0     2.661098733446   119.14669183     0.00000000
 C      3   2   1     2.689737689364   118.34489115   358.93270944
 C      4   3   2     2.651823645496   122.60324696     1.39116279
 C      5   4   3     2.631009876848   117.47916810   359.33411370
 C      3   2   1     2.749570097524   135.13600298   181.50484501
 C      7   3   2     2.695759061892   106.03603513   176.51267497
 N      8   7   3     2.611324325224   109.27148664     1.57674597
 C      8   7   3     2.651040368916   123.08237790   182.53548933
 C     10   8   7     2.632216969229   117.40440527     0.64631358
 C     11  10   8     2.647580412353   120.87757267   359.02041902
 C     12  11  10     2.659870089317   122.31175547   359.74206895
 H     12  11  10     2.053551393923   118.99381667   181.42439180
 H      9   8   7     1.913649650296   125.33061841   180.81298935
 H     11  10   8     2.052504627159   119.80108449   179.52833673
 H      2   1   3     2.050436302505   119.65083153   180.32861415
 H      5   4   3     2.053451360487   121.13823083   179.73288415
 H      6   5   4     2.053461048876   119.59542924   180.06075496
 H      1   2   3     2.052955228072   119.36356624   180.07393710
 C     14  12  11    13.027574094640   122.79605863   186.29247521
 N     21  14  12     2.532394115855   103.80605866   326.11103747
 O     22  21  14     2.566809254218   106.88253493     8.70794297
 C     23  22  21     2.536234643591   110.07058720     0.00000000
 C     24  23  22     2.610805171884   109.39153683     0.05559814
 C     24  23  22     2.752465498085   118.71721949   180.03328944
 N     26  24  23     2.534498337778   122.10580916     0.16679779
 O     27  26  24     2.567232798395   106.49593363   180.14871342
 C     28  27  26     2.534222267782   110.60627841     0.19037326
 C     29  28  27     2.614791508382   108.88062002   359.40614905
 H     30  29  28     2.041264343436   128.01621800   179.27564522
 H     25  24  23     2.041697733695   127.62487310   180.00877757
 C     21  14  12    24.466777898777   133.42095256   210.26977766
 C     33  21  14     2.534097567316    80.52782057   117.07988562
 S     34  33  21     3.379946014516   125.11676240    40.19580391
 C     35  34  33     3.375355411651   101.92061467   329.61483379
 C     36  35  34     2.563573848599   124.86051160    30.28726939
 S     37  36  35     3.375468921425   124.86631918     0.00000000
 S     36  35  34     3.372289198073   117.62932981   213.38056712
 C     39  36  35     3.380782799904    95.49849637   179.13125460
 S     37  36  35     3.372619107629   117.43470758   183.08967806
 C     40  39  36     2.565268029348   122.98997439   177.02532451
 S     42  40  39     3.379454816890   122.99201052     0.00000000
 C     43  42  40     3.372388103335    95.54930296   182.92743164
 C     44  43  42     2.563628693921   117.30864719   358.13542931
 S     45  44  43     3.373435320598   117.55488957   359.79036597
 S     44  43  42     3.370329139432   117.74035975   180.49661618
 C     21  14  12     2.765859804858   134.95819107   155.95234077
 C     48  21  14     2.555878576487   122.87994935   348.78679847
 S     49  48  21     3.369550850581   125.68453554   180.42980262
 H     49  48  21     2.057697273225   119.77622940     0.60371572
 H     34  33  21     2.056923884790   120.26602158   220.99027194
 H     10   8   7     2.052762819506   121.19305434   180.05501672
 H     33  21  14     2.056925079176   136.54740976   352.53922529

---------------------
BASIS SET INFORMATION
---------------------
There are 5 groups of distinct atoms

 Group   1 Type C   : 11s6p2d1f contracted to 5s3p2d1f pattern {62111/411/11/1}
 Group   2 Type N   : 11s6p2d1f contracted to 5s3p2d1f pattern {62111/411/11/1}
 Group   3 Type H   : 5s1p contracted to 3s1p pattern {311/1}
 Group   4 Type O   : 11s6p2d1f contracted to 5s3p2d1f pattern {62111/411/11/1}
 Group   5 Type S   : 14s9p3d1f contracted to 5s5p2d1f pattern {73211/51111/21/1}

Atom   0C    basis set group =>   1
Atom   1C    basis set group =>   1
Atom   2C    basis set group =>   1
Atom   3C    basis set group =>   1
Atom   4C    basis set group =>   1
Atom   5C    basis set group =>   1
Atom   6C    basis set group =>   1
Atom   7C    basis set group =>   1
Atom   8N    basis set group =>   2
Atom   9C    basis set group =>   1
Atom  10C    basis set group =>   1
Atom  11C    basis set group =>   1
Atom  12C    basis set group =>   1
Atom  13H    basis set group =>   3
Atom  14H    basis set group =>   3
Atom  15H    basis set group =>   3
Atom  16H    basis set group =>   3
Atom  17H    basis set group =>   3
Atom  18H    basis set group =>   3
Atom  19H    basis set group =>   3
Atom  20C    basis set group =>   1
Atom  21N    basis set group =>   2
Atom  22O    basis set group =>   4
Atom  23C    basis set group =>   1
Atom  24C    basis set group =>   1
Atom  25C    basis set group =>   1
Atom  26N    basis set group =>   2
Atom  27O    basis set group =>   4
Atom  28C    basis set group =>   1
Atom  29C    basis set group =>   1
Atom  30H    basis set group =>   3
Atom  31H    basis set group =>   3
Atom  32C    basis set group =>   1
Atom  33C    basis set group =>   1
Atom  34S    basis set group =>   5
Atom  35C    basis set group =>   1
Atom  36C    basis set group =>   1
Atom  37S    basis set group =>   5
Atom  38S    basis set group =>   5
Atom  39C    basis set group =>   1
Atom  40S    basis set group =>   5
Atom  41C    basis set group =>   1
Atom  42S    basis set group =>   5
Atom  43C    basis set group =>   1
Atom  44C    basis set group =>   1
Atom  45S    basis set group =>   5
Atom  46S    basis set group =>   5
Atom  47C    basis set group =>   1
Atom  48C    basis set group =>   1
Atom  49S    basis set group =>   5
Atom  50H    basis set group =>   3
Atom  51H    basis set group =>   3
Atom  52H    basis set group =>   3
Atom  53H    basis set group =>   3
-------------------------------
AUXILIARY BASIS SET INFORMATION
-------------------------------
There are 5 groups of distinct atoms

 Group   1 Type C   : 12s5p4d2f1g contracted to 6s4p3d1f1g pattern {711111/2111/211/2/1}
 Group   2 Type N   : 12s5p4d2f1g contracted to 6s4p3d1f1g pattern {711111/2111/211/2/1}
 Group   3 Type H   : 5s2p1d contracted to 3s1p1d pattern {311/2/1}
 Group   4 Type O   : 12s5p4d2f1g contracted to 6s4p3d1f1g pattern {711111/2111/211/2/1}
 Group   5 Type S   : 14s5p5d2f1g contracted to 8s4p3d1f1g pattern {71111111/2111/311/2/1}

Atom   0C    basis set group =>   1
Atom   1C    basis set group =>   1
Atom   2C    basis set group =>   1
Atom   3C    basis set group =>   1
Atom   4C    basis set group =>   1
Atom   5C    basis set group =>   1
Atom   6C    basis set group =>   1
Atom   7C    basis set group =>   1
Atom   8N    basis set group =>   2
Atom   9C    basis set group =>   1
Atom  10C    basis set group =>   1
Atom  11C    basis set group =>   1
Atom  12C    basis set group =>   1
Atom  13H    basis set group =>   3
Atom  14H    basis set group =>   3
Atom  15H    basis set group =>   3
Atom  16H    basis set group =>   3
Atom  17H    basis set group =>   3
Atom  18H    basis set group =>   3
Atom  19H    basis set group =>   3
Atom  20C    basis set group =>   1
Atom  21N    basis set group =>   2
Atom  22O    basis set group =>   4
Atom  23C    basis set group =>   1
Atom  24C    basis set group =>   1
Atom  25C    basis set group =>   1
Atom  26N    basis set group =>   2
Atom  27O    basis set group =>   4
Atom  28C    basis set group =>   1
Atom  29C    basis set group =>   1
Atom  30H    basis set group =>   3
Atom  31H    basis set group =>   3
Atom  32C    basis set group =>   1
Atom  33C    basis set group =>   1
Atom  34S    basis set group =>   5
Atom  35C    basis set group =>   1
Atom  36C    basis set group =>   1
Atom  37S    basis set group =>   5
Atom  38S    basis set group =>   5
Atom  39C    basis set group =>   1
Atom  40S    basis set group =>   5
Atom  41C    basis set group =>   1
Atom  42S    basis set group =>   5
Atom  43C    basis set group =>   1
Atom  44C    basis set group =>   1
Atom  45S    basis set group =>   5
Atom  46S    basis set group =>   5
Atom  47C    basis set group =>   1
Atom  48C    basis set group =>   1
Atom  49S    basis set group =>   5
Atom  50H    basis set group =>   3
Atom  51H    basis set group =>   3
Atom  52H    basis set group =>   3
Atom  53H    basis set group =>   3
-------------------------
ECP PARAMETER INFORMATION
-------------------------



--------------------------------------------------------------------------
[[604,1],7]: A high-performance Open MPI point-to-point messaging module
was unable to find any relevant network interfaces:

Module: OpenFabrics (openib)
  Host: cx1-136-16-2

Another transport will be used instead, although this may result in
lower performance.
--------------------------------------------------------------------------


           ************************************************************
           *        Program running with 24 parallel MPI-processes    *
           *              working on a common directory               *
           ************************************************************
------------------------------------------------------------------------------
                           ORCA GTO INTEGRAL CALCULATION
                           -- RI-GTO INTEGRALS CHOSEN --
------------------------------------------------------------------------------

                         BASIS SET STATISTICS AND STARTUP INFO

Gaussian basis set:
 # of primitive gaussian shells          ...  954
 # of primitive gaussian functions       ... 2126
 # of contracted shells                  ...  519
 # of contracted basis functions         ... 1397
 Highest angular momentum                ...    3
 Maximum contraction depth               ...    7
Auxiliary gaussian basis set:
 # of primitive gaussian shells          ... 1112
 # of primitive gaussian functions       ... 3134
 # of contracted shells                  ...  696
 # of contracted aux-basis functions     ... 2168
 Highest angular momentum                ...    4
 Maximum contraction depth               ...    7
Ratio of auxiliary to basis functions    ...  1.55
Integral package used                  ... LIBINT
 One Electron integrals                  
   ECP integrals                         ... done
 Ordering auxiliary basis shells         ... done
 Integral threshhold             Thresh  ...  2.500e-11
 Primitive cut-off               TCut    ...  2.500e-12
 Pre-screening matrix                    ... done
 Shell pair data                         ... 
 Ordering of the shell pairs             ... done (   0.018 sec) 52239 of 134940 pairs
 Determination of significant pairs      ... done (   0.000 sec)
 Creation of shell pair data             ... done (   0.017 sec)
 Storage of shell pair data              ... done (   0.138 sec)
 Shell pair data done in (   0.174 sec)
 Computing two index integrals           ... done
 Cholesky decomposition of the V-matrix  ... done


Timings:
 Total evaluation time                   ...   8.517 sec (  0.142 min)
 One electron matrix time                ...   2.265 sec (  0.038 min) = 26.6%
 Schwartz matrix evaluation time         ...   4.547 sec (  0.076 min) = 53.4%
 Two index repulsion integral time       ...   0.632 sec (  0.011 min) =  7.4%
 Cholesky decomposition of V             ...   0.857 sec (  0.014 min) = 10.1%
 Three index repulsion integral time     ...   0.000 sec (  0.000 min) =  0.0%

--------------------------------------------------------------------------
[[559,1],4]: A high-performance Open MPI point-to-point messaging module
was unable to find any relevant network interfaces:

Module: OpenFabrics (openib)
  Host: cx1-136-16-2

Another transport will be used instead, although this may result in
lower performance.
--------------------------------------------------------------------------


           ************************************************************
           *        Program running with 24 parallel MPI-processes    *
           *              working on a common directory               *
           ************************************************************
-------------------------------------------------------------------------------
                                 ORCA SCF
-------------------------------------------------------------------------------

------------
SCF SETTINGS
------------
Hamiltonian:
 Density Functional     Method          .... DFT(GTOs)
 Exchange Functional    Exchange        .... WB97X-D3
 Correlation Functional Correlation     .... WB97X-D3
 Gradients option       PostSCFGGA      .... off
 Hybrid DFT is turned on
   Fraction HF Exchange ScalHFX         ....  0.195728
   Scaling of DF-GGA-X  ScalDFX         ....  0.000000
   Scaling of DF-GGA-C  ScalDFC         ....  1.000000
   Scaling of DF-LDA-C  ScalLDAC        ....  1.000000
   Perturbative correction              ....  0.000000
 Long-range corrected/Screened/Range-Separated Hybrid DFT is turned on
   Amount of maximum screened exact exchange              ....  0.804272
   Range separation parameter mu (erf(mu*r12)/r12)        ....  0.250000
 RI-approximation to the Coulomb term is turned on
   Number of auxiliary basis functions  .... 2168
   RIJ-COSX (HFX calculated with COS-X)).... on


General Settings:
 Integral files         IntName         .... total
 Hartree-Fock type      HFTyp           .... RHF
 Total Charge           Charge          ....    0
 Multiplicity           Mult            ....    1
 Number of Electrons    NEL             ....  346
 Basis Dimension        Dim             .... 1397
 Nuclear Repulsion      ENuc            ....   5334.4353006889 Eh

Convergence Acceleration:
 DIIS                   CNVDIIS         .... on
   Start iteration      DIISMaxIt       ....    12
   Startup error        DIISStart       ....  0.200000
   # of expansion vecs  DIISMaxEq       ....     5
   Bias factor          DIISBfac        ....   1.050
   Max. coefficient     DIISMaxC        ....  10.000
 Newton-Raphson         CNVNR           .... off
 SOSCF                  CNVSOSCF        .... on
   Start iteration      SOSCFMaxIt      ....   150
   Startup grad/error   SOSCFStart      ....  0.003300
 Level Shifting         CNVShift        .... on
   Level shift para.    LevelShift      ....    0.2500
   Turn off err/grad.   ShiftErr        ....    0.0010
 Zerner damping         CNVZerner       .... off
 Static damping         CNVDamp         .... on
   Fraction old density DampFac         ....    0.7000
   Max. Damping (<1)    DampMax         ....    0.9800
   Min. Damping (>=0)   DampMin         ....    0.0000
   Turn off err/grad.   DampErr         ....    0.1000
 Fernandez-Rico         CNVRico         .... off

SCF Procedure:
 Maximum # iterations   MaxIter         ....   125
 SCF integral mode      SCFMode         .... Direct
   Integral package                     .... LIBINT
 Reset frequeny         DirectResetFreq ....    20
 Integral Threshold     Thresh          ....  2.500e-11 Eh
 Primitive CutOff       TCut            ....  2.500e-12 Eh

Convergence Tolerance:
 Convergence Check Mode ConvCheckMode   .... Total+1el-Energy
 Convergence forced     ConvForced      .... 1
 Energy Change          TolE            ....  1.000e-08 Eh
 1-El. energy change                    ....  1.000e-05 Eh
 Orbital Gradient       TolG            ....  1.000e-05
 Orbital Rotation angle TolX            ....  1.000e-05
 DIIS Error             TolErr          ....  5.000e-07


Diagonalization of the overlap matrix:
Smallest eigenvalue                        ... 6.104e-06
Time for diagonalization                   ...    0.658 sec
Threshold for overlap eigenvalues          ... 1.000e-08
Number of eigenvalues below threshold      ... 0
Time for construction of square roots      ...    0.757 sec
Total time needed                          ...    1.429 sec

-------------------
DFT GRID GENERATION
-------------------

General Integration Accuracy     IntAcc      ...  5.010
Radial Grid Type                 RadialGrid  ... Gauss-Chebyshev
Angular Grid (max. acc.)         AngularGrid ... Lebedev-434
Angular grid pruning method      GridPruning ... 3 (G Style)
Weight generation scheme         WeightScheme... Becke
Basis function cutoff            BFCut       ...    1.0000e-11
Integration weight cutoff        WCut        ...    1.0000e-14
Grids for H and He will be reduced by one unit

# of grid points (after initial pruning)     ... 533914 (   0.0 sec)
# of grid points (after weights+screening)   ... 473435 (   2.2 sec)
nearest neighbour list constructed           ...    0.0 sec
Grid point re-assignment to atoms done       ...    0.3 sec
Grid point division into batches done        ...    6.2 sec
Reduced shell lists constructed in    7.2 sec

Total number of grid points                  ...   473435
Total number of batches                      ...     7424
Average number of points per batch           ...       63
Average number of grid points per atom       ...     8767
Average number of shells per batch           ...   137.64 (26.52%)
Average number of basis functions per batch  ...   358.79 (25.68%)
Average number of large shells per batch     ...    96.17 (69.87%)
Average number of large basis fcns per batch ...   250.36 (69.78%)
Maximum spatial batch extension              ...   9.52, 14.12, 20.07 au
Average spatial batch extension              ...   0.06,  0.06,  0.07 au

Time for grid setup =   10.442 sec

------------------------------
INITIAL GUESS: MODEL POTENTIAL
------------------------------
Loading Hartree-Fock densities                     ... done
Calculating cut-offs                               ... done
Setting up the integral package                    ... done
Initializing the effective Hamiltonian             ... done
Starting the Coulomb interaction                   ... done (   0.7 sec)
Reading the grid                                   ... done
Mapping shells                                     ... done
Starting the XC term evaluation                    ... done (   2.5 sec)
  promolecular density results
     # of electrons  =    345.993628018
     EX              =   -382.189023267
     EC              =    -12.442362910
     EX+EC           =   -394.631386177
Transforming the Hamiltonian                       ... done (   0.4 sec)
Diagonalizing the Hamiltonian                      ... done (   0.7 sec)
Back transforming the eigenvectors                 ... done (   0.2 sec)
Now organizing SCF variables                       ... done
                      ------------------
                      INITIAL GUESS DONE (  15.3 sec)
                      ------------------
--------------------
COSX GRID GENERATION
--------------------

General Integration Accuracy     IntAcc      ...  3.340
Radial Grid Type                 RadialGrid  ... Gauss-Chebyshev
Angular Grid (max. acc.)         AngularGrid ... Lebedev-50
Angular grid pruning method      GridPruning ... 3 (G Style)
Weight generation scheme         WeightScheme... Becke
Basis function cutoff            BFCut       ...    1.0000e-11
Integration weight cutoff        WCut        ...    1.0000e-14
Grids for H and He will be reduced by one unit

# of grid points (after initial pruning)     ...  28906 (   0.0 sec)
# of grid points (after weights+screening)   ...  26651 (   0.1 sec)
nearest neighbour list constructed           ...    0.0 sec
Grid point re-assignment to atoms done       ...    0.0 sec
Grid point division into batches done        ...    0.0 sec
Reduced shell lists constructed in    0.1 sec

Total number of grid points                  ...    26651
Total number of batches                      ...      442
Average number of points per batch           ...       60
Average number of grid points per atom       ...      494
Average number of shells per batch           ...   149.55 (28.82%)
Average number of basis functions per batch  ...   393.45 (28.16%)
Average number of large shells per batch     ...   106.45 (71.18%)
Average number of large basis fcns per batch ...   280.25 (71.23%)
Maximum spatial batch extension              ...   5.76, 24.22,  7.69 au
Average spatial batch extension              ...   0.11,  0.24,  0.11 au

Overlap Fitting                  UseSFitting ... on
Constructing numerical overlap ... done (      0.1 sec)
Inverting numerical overlap    ... done (      0.3 sec)
Obtaining analytic overlap     ... done (      0.0 sec)
Final contraction and storage  ... done (      0.9 sec)


General Integration Accuracy     IntAcc      ...  3.670
Radial Grid Type                 RadialGrid  ... Gauss-Chebyshev
Angular Grid (max. acc.)         AngularGrid ... Lebedev-50
Angular grid pruning method      GridPruning ... 3 (G Style)
Weight generation scheme         WeightScheme... Becke
Basis function cutoff            BFCut       ...    1.0000e-11
Integration weight cutoff        WCut        ...    1.0000e-14
Grids for H and He will be reduced by one unit

# of grid points (after initial pruning)     ...  35974 (   0.0 sec)
# of grid points (after weights+screening)   ...  33069 (   0.2 sec)
nearest neighbour list constructed           ...    0.0 sec
Grid point re-assignment to atoms done       ...    0.0 sec
Grid point division into batches done        ...    0.0 sec
Reduced shell lists constructed in    0.1 sec

Total number of grid points                  ...    33069
Total number of batches                      ...      547
Average number of points per batch           ...       60
Average number of grid points per atom       ...      612
Average number of shells per batch           ...   149.50 (28.81%)
Average number of basis functions per batch  ...   391.25 (28.01%)
Average number of large shells per batch     ...   105.54 (70.60%)
Average number of large basis fcns per batch ...   278.12 (71.09%)
Maximum spatial batch extension              ...   7.11, 26.37,  5.02 au
Average spatial batch extension              ...   0.11,  0.26,  0.10 au

Overlap Fitting                  UseSFitting ... on
Constructing numerical overlap ... done (      0.1 sec)
Inverting numerical overlap    ... done (      0.3 sec)
Obtaining analytic overlap     ... done (      0.0 sec)
Final contraction and storage  ... done (      0.9 sec)


General Integration Accuracy     IntAcc      ...  4.010
Radial Grid Type                 RadialGrid  ... Gauss-Chebyshev
Angular Grid (max. acc.)         AngularGrid ... Lebedev-110
Angular grid pruning method      GridPruning ... 3 (G Style)
Weight generation scheme         WeightScheme... Becke
Basis function cutoff            BFCut       ...    1.0000e-11
Integration weight cutoff        WCut        ...    1.0000e-14
Grids for H and He will be reduced by one unit

# of grid points (after initial pruning)     ...  70092 (   0.0 sec)
# of grid points (after weights+screening)   ...  63758 (   0.3 sec)
nearest neighbour list constructed           ...    0.0 sec
Grid point re-assignment to atoms done       ...    0.0 sec
Grid point division into batches done        ...    0.1 sec
Reduced shell lists constructed in    0.3 sec

Total number of grid points                  ...    63758
Total number of batches                      ...     1018
Average number of points per batch           ...       62
Average number of grid points per atom       ...     1181
Average number of shells per batch           ...   150.09 (28.92%)
Average number of basis functions per batch  ...   395.27 (28.29%)
Average number of large shells per batch     ...   106.32 (70.84%)
Average number of large basis fcns per batch ...   279.32 (70.66%)
Maximum spatial batch extension              ...   8.53, 29.96, 15.30 au
Average spatial batch extension              ...   0.10,  0.19,  0.11 au

Overlap Fitting                  UseSFitting ... on
Constructing numerical overlap ... done (      0.2 sec)
Inverting numerical overlap    ... done (      0.3 sec)
Obtaining analytic overlap     ... done (      0.0 sec)
Final contraction and storage  ... done (      0.9 sec)

Time for X-Grid setup             =    5.841 sec
--------------
SCF ITERATIONS
--------------
ITER       Energy         Delta-E        Max-DP      RMS-DP      [F,P]     Damp
               ***  Starting incremental Fock matrix formation  ***
  0  -4574.4128014844   0.000000000000 0.05011264  0.00053049  0.1413229 0.7000
  1  -4574.6501034439  -0.237301959495 0.04359468  0.00045760  0.0887967 0.7000
                               ***Turning on DIIS***
  2  -4574.7722999488  -0.122196504899 0.11905309  0.00110928  0.0504992 0.0000
  3  -4574.9785694448  -0.206269496061 0.01821450  0.00020815  0.0332305 0.0000
  4  -4575.0092555779  -0.030686133017 0.01259120  0.00008987  0.0059166 0.0000
                      *** Initiating the SOSCF procedure ***
                           *** Shutting down DIIS ***
                      *** Re-Reading the Fockian *** 
                      *** Removing any level shift *** 
ITER      Energy       Delta-E        Grad      Rot      Max-DP    RMS-DP
  5  -4575.01059828  -0.0013427052  0.001583  0.001583  0.004939  0.000035
               *** Restarting incremental Fock matrix formation ***
  6  -4575.01100375  -0.0004054688  0.001141  0.003305  0.021243  0.000121
  7  -4575.01116224  -0.0001584877  0.000496  0.003553  0.014952  0.000077
  8  -4575.01119027  -0.0000280277  0.000438  0.000778  0.011975  0.000064
  9  -4575.01121250  -0.0000222317  0.000056  0.000187  0.001422  0.000008
 10  -4575.01121303  -0.0000005344  0.000051  0.000110  0.000569  0.000004
 11  -4575.01121353  -0.0000004924  0.000021  0.000094  0.000404  0.000002
 12  -4575.01121354  -0.0000000107  0.000011  0.000059  0.000193  0.000002
 13  -4575.01121368  -0.0000001400  0.000005  0.000034  0.000479  0.000002
                  ***Gradient check signals convergence***
              ***Rediagonalizing the Fockian in SOSCF/NRSCF***

               *****************************************************
               *                     SUCCESS                       *
               *           SCF CONVERGED AFTER  14 CYCLES          *
               *****************************************************

Old exchange energy                            =   -112.825276507 Eh
New exchange energy                            =   -112.827812619 Eh
Exchange energy change after final integration =     -0.002536112 Eh
Total energy after final integration           =  -4575.013749841 Eh
Final COS-X integration done in                =    66.716 sec

----------------
TOTAL SCF ENERGY
----------------

Total Energy       :        -4575.01374984 Eh         -124492.45321 eV

Components:
Nuclear Repulsion  :         5334.43530069 Eh          145157.36419 eV
Electronic Energy  :        -9909.44905053 Eh         -269649.81740 eV
One Electron Energy:       -16911.72660176 Eh         -460191.47652 eV
Two Electron Energy:         7002.27755123 Eh          190541.65912 eV

Virial components:
Potential Energy   :        -9136.88692690 Eh         -248627.33325 eV
Kinetic Energy     :         4561.87317706 Eh          124134.88004 eV
Virial Ratio       :            2.00288052


DFT components:
N(Alpha)           :      172.999989603532 electrons
N(Beta)            :      172.999989603532 electrons
N(Total)           :      345.999979207063 electrons
E(XC)              :     -287.101177852635 Eh       

---------------
SCF CONVERGENCE
---------------

  Last Energy change         ...   -5.2089e-08  Tolerance :   1.0000e-08
  Last MAX-Density change    ...    8.7535e-14  Tolerance :   1.0000e-07
  Last RMS-Density change    ...    1.3780e-16  Tolerance :   5.0000e-09
  Last Orbital Gradient      ...    1.9922e-06  Tolerance :   1.0000e-05
  Last Orbital Rotation      ...    1.0865e-05  Tolerance :   1.0000e-05

             **** THE GBW FILE WAS UPDATED (total.gbw) ****
             **** DENSITY FILE WAS UPDATED (total.scfp.tmp) ****
             **** ENERGY FILE WAS UPDATED (total.en.tmp) ****
----------------
ORBITAL ENERGIES
----------------

  NO   OCC          E(Eh)            E(eV) 
   0   2.0000     -88.995837     -2421.6999 
   1   2.0000     -88.995216     -2421.6829 
   2   2.0000     -88.995183     -2421.6821 
   3   2.0000     -88.995106     -2421.6799 
   4   2.0000     -88.994969     -2421.6762 
   5   2.0000     -88.988908     -2421.5113 
   6   2.0000     -88.988768     -2421.5075 
   7   2.0000     -88.987420     -2421.4708 
   8   2.0000     -19.346734      -526.4514 
   9   2.0000     -19.345975      -526.4308 
  10   2.0000     -14.492152      -394.3515 
  11   2.0000     -14.491012      -394.3205 
  12   2.0000     -14.476618      -393.9288 
  13   2.0000     -10.383425      -282.5473 
  14   2.0000     -10.376810      -282.3674 
  15   2.0000     -10.367649      -282.1181 
  16   2.0000     -10.367064      -282.1021 
  17   2.0000     -10.366916      -282.0981 
  18   2.0000     -10.366329      -282.0822 
  19   2.0000     -10.363837      -282.0143 
  20   2.0000     -10.363112      -281.9946 
  21   2.0000     -10.359391      -281.8934 
  22   2.0000     -10.353915      -281.7443 
  23   2.0000     -10.353661      -281.7375 
  24   2.0000     -10.349116      -281.6138 
  25   2.0000     -10.340465      -281.3783 
  26   2.0000     -10.339979      -281.3651 
  27   2.0000     -10.339151      -281.3426 
  28   2.0000     -10.332638      -281.1654 
  29   2.0000     -10.325247      -280.9643 
  30   2.0000     -10.316674      -280.7310 
  31   2.0000     -10.310565      -280.5647 
  32   2.0000     -10.309825      -280.5446 
  33   2.0000     -10.303891      -280.3831 
  34   2.0000     -10.301393      -280.3151 
  35   2.0000     -10.299642      -280.2675 
  36   2.0000     -10.296779      -280.1896 
  37   2.0000     -10.291047      -280.0336 
  38   2.0000     -10.289702      -279.9970 
  39   2.0000     -10.287307      -279.9319 
  40   2.0000     -10.278309      -279.6870 
  41   2.0000      -8.091861      -220.1907 
  42   2.0000      -8.091227      -220.1735 
  43   2.0000      -8.091214      -220.1731 
  44   2.0000      -8.091098      -220.1700 
  45   2.0000      -8.090983      -220.1668 
  46   2.0000      -8.085091      -220.0065 
  47   2.0000      -8.084953      -220.0028 
  48   2.0000      -8.083497      -219.9631 
  49   2.0000      -6.046145      -164.5240 
  50   2.0000      -6.045557      -164.5080 
  51   2.0000      -6.045518      -164.5069 
  52   2.0000      -6.045414      -164.5041 
  53   2.0000      -6.045278      -164.5004 
  54   2.0000      -6.041918      -164.4089 
  55   2.0000      -6.041303      -164.3922 
  56   2.0000      -6.041257      -164.3910 
  57   2.0000      -6.041129      -164.3875 
  58   2.0000      -6.041023      -164.3846 
  59   2.0000      -6.039434      -164.3414 
  60   2.0000      -6.039298      -164.3377 
  61   2.0000      -6.037921      -164.3002 
  62   2.0000      -6.036797      -164.2696 
  63   2.0000      -6.036153      -164.2521 
  64   2.0000      -6.036103      -164.2507 
  65   2.0000      -6.036026      -164.2486 
  66   2.0000      -6.035916      -164.2456 
  67   2.0000      -6.035163      -164.2251 
  68   2.0000      -6.035026      -164.2214 
  69   2.0000      -6.033683      -164.1849 
  70   2.0000      -6.029906      -164.0821 
  71   2.0000      -6.029767      -164.0783 
  72   2.0000      -6.028026      -164.0309 
  73   2.0000      -1.297002       -35.2932 
  74   2.0000      -1.293348       -35.1938 
  75   2.0000      -1.114094       -30.3160 
  76   2.0000      -1.034266       -28.1438 
  77   2.0000      -1.027449       -27.9583 
  78   2.0000      -1.017984       -27.7008 
  79   2.0000      -1.006181       -27.3796 
  80   2.0000      -0.990164       -26.9437 
  81   2.0000      -0.976837       -26.5811 
  82   2.0000      -0.970944       -26.4207 
  83   2.0000      -0.957403       -26.0523 
  84   2.0000      -0.946764       -25.7628 
  85   2.0000      -0.929515       -25.2934 
  86   2.0000      -0.923816       -25.1383 
  87   2.0000      -0.920592       -25.0506 
  88   2.0000      -0.914271       -24.8786 
  89   2.0000      -0.908887       -24.7321 
  90   2.0000      -0.879537       -23.9334 
  91   2.0000      -0.872758       -23.7490 
  92   2.0000      -0.870441       -23.6859 
  93   2.0000      -0.858329       -23.3563 
  94   2.0000      -0.853219       -23.2173 
  95   2.0000      -0.847623       -23.0650 
  96   2.0000      -0.817897       -22.2561 
  97   2.0000      -0.791214       -21.5300 
  98   2.0000      -0.781521       -21.2663 
  99   2.0000      -0.775652       -21.1066 
 100   2.0000      -0.762053       -20.7365 
 101   2.0000      -0.748767       -20.3750 
 102   2.0000      -0.742690       -20.2096 
 103   2.0000      -0.727706       -19.8019 
 104   2.0000      -0.721846       -19.6424 
 105   2.0000      -0.717713       -19.5300 
 106   2.0000      -0.712905       -19.3991 
 107   2.0000      -0.707352       -19.2480 
 108   2.0000      -0.674807       -18.3624 
 109   2.0000      -0.670573       -18.2472 
 110   2.0000      -0.648428       -17.6446 
 111   2.0000      -0.635514       -17.2932 
 112   2.0000      -0.625822       -17.0295 
 113   2.0000      -0.622803       -16.9473 
 114   2.0000      -0.621962       -16.9245 
 115   2.0000      -0.616543       -16.7770 
 116   2.0000      -0.611618       -16.6430 
 117   2.0000      -0.605428       -16.4745 
 118   2.0000      -0.604583       -16.4515 
 119   2.0000      -0.600775       -16.3479 
 120   2.0000      -0.591933       -16.1073 
 121   2.0000      -0.584088       -15.8938 
 122   2.0000      -0.577536       -15.7155 
 123   2.0000      -0.569730       -15.5031 
 124   2.0000      -0.567034       -15.4298 
 125   2.0000      -0.557519       -15.1709 
 126   2.0000      -0.554528       -15.0895 
 127   2.0000      -0.541809       -14.7434 
 128   2.0000      -0.540034       -14.6951 
 129   2.0000      -0.537424       -14.6241 
 130   2.0000      -0.535080       -14.5603 
 131   2.0000      -0.530498       -14.4356 
 132   2.0000      -0.529970       -14.4212 
 133   2.0000      -0.526676       -14.3316 
 134   2.0000      -0.522165       -14.2088 
 135   2.0000      -0.514810       -14.0087 
 136   2.0000      -0.509165       -13.8551 
 137   2.0000      -0.506804       -13.7908 
 138   2.0000      -0.502374       -13.6703 
 139   2.0000      -0.494013       -13.4428 
 140   2.0000      -0.480140       -13.0653 
 141   2.0000      -0.475912       -12.9502 
 142   2.0000      -0.474438       -12.9101 
 143   2.0000      -0.467302       -12.7159 
 144   2.0000      -0.464332       -12.6351 
 145   2.0000      -0.458269       -12.4701 
 146   2.0000      -0.457025       -12.4363 
 147   2.0000      -0.452365       -12.3095 
 148   2.0000      -0.451640       -12.2897 
 149   2.0000      -0.448683       -12.2093 
 150   2.0000      -0.444491       -12.0952 
 151   2.0000      -0.441682       -12.0188 
 152   2.0000      -0.435941       -11.8626 
 153   2.0000      -0.434526       -11.8240 
 154   2.0000      -0.425284       -11.5726 
 155   2.0000      -0.421897       -11.4804 
 156   2.0000      -0.419554       -11.4167 
 157   2.0000      -0.415035       -11.2937 
 158   2.0000      -0.408772       -11.1232 
 159   2.0000      -0.403130       -10.9697 
 160   2.0000      -0.399318       -10.8660 
 161   2.0000      -0.391475       -10.6526 
 162   2.0000      -0.378641       -10.3034 
 163   2.0000      -0.369361       -10.0508 
 164   2.0000      -0.360272        -9.8035 
 165   2.0000      -0.356208        -9.6929 
 166   2.0000      -0.348533        -9.4841 
 167   2.0000      -0.340263        -9.2590 
 168   2.0000      -0.310734        -8.4555 
 169   2.0000      -0.307435        -8.3657 
 170   2.0000      -0.296475        -8.0675 
 171   2.0000      -0.292823        -7.9681 
 172   2.0000      -0.254970        -6.9381 
 173   0.0000      -0.008466        -0.2304 
 174   0.0000       0.000101         0.0028 
 175   0.0000       0.014890         0.4052 
 176   0.0000       0.016638         0.4528 
 177   0.0000       0.023469         0.6386 
 178   0.0000       0.036494         0.9931 
 179   0.0000       0.043931         1.1954 
 180   0.0000       0.053228         1.4484 
 181   0.0000       0.053808         1.4642 
 182   0.0000       0.066282         1.8036 
 183   0.0000       0.068455         1.8628 
 184   0.0000       0.077020         2.0958 
 185   0.0000       0.082457         2.2438 
 186   0.0000       0.084983         2.3125 
 187   0.0000       0.088398         2.4054 
 188   0.0000       0.089500         2.4354 
 189   0.0000       0.094867         2.5814 
 190   0.0000       0.099431         2.7057 
 191   0.0000       0.100404         2.7321 
 192   0.0000       0.103606         2.8193 
 193   0.0000       0.107492         2.9250 
 194   0.0000       0.111356         3.0301 
 195   0.0000       0.123206         3.3526 
 196   0.0000       0.129608         3.5268 
 197   0.0000       0.130416         3.5488 
 198   0.0000       0.133998         3.6463 
 199   0.0000       0.141001         3.8368 
 200   0.0000       0.144567         3.9339 
 201   0.0000       0.150504         4.0954 
 202   0.0000       0.155527         4.2321 
 203   0.0000       0.157995         4.2993 
 204   0.0000       0.158852         4.3226 
 205   0.0000       0.161391         4.3917 
 206   0.0000       0.167808         4.5663 
 207   0.0000       0.169038         4.5998 
 208   0.0000       0.171803         4.6750 
 209   0.0000       0.173555         4.7227 
 210   0.0000       0.176032         4.7901 
 211   0.0000       0.178897         4.8680 
 212   0.0000       0.182393         4.9632 
 213   0.0000       0.186668         5.0795 
 214   0.0000       0.194160         5.2834 
 215   0.0000       0.196812         5.3555 
 216   0.0000       0.202903         5.5213 
 217   0.0000       0.205927         5.6035 
 218   0.0000       0.206502         5.6192 
 219   0.0000       0.214922         5.8483 
 220   0.0000       0.217421         5.9163 
 221   0.0000       0.225256         6.1295 
 222   0.0000       0.225829         6.1451 
 223   0.0000       0.230982         6.2853 
 224   0.0000       0.234811         6.3895 
 225   0.0000       0.236157         6.4262 
 226   0.0000       0.239814         6.5257 
 227   0.0000       0.243926         6.6376 
 228   0.0000       0.246847         6.7171 
 229   0.0000       0.253228         6.8907 
 230   0.0000       0.254945         6.9374 
 231   0.0000       0.257243         6.9999 
 232   0.0000       0.260782         7.0962 
 233   0.0000       0.263120         7.1599 
 234   0.0000       0.265701         7.2301 
 235   0.0000       0.271181         7.3792 
 236   0.0000       0.271569         7.3898 
 237   0.0000       0.275074         7.4852 
 238   0.0000       0.278295         7.5728 
 239   0.0000       0.279136         7.5957 
 240   0.0000       0.282699         7.6926 
 241   0.0000       0.284647         7.7456 
 242   0.0000       0.285045         7.7565 
 243   0.0000       0.286925         7.8076 
 244   0.0000       0.288221         7.8429 
 245   0.0000       0.288776         7.8580 
 246   0.0000       0.290866         7.9149 
 247   0.0000       0.291932         7.9439 
 248   0.0000       0.292479         7.9588 
 249   0.0000       0.294564         8.0155 
 250   0.0000       0.297382         8.0922 
 251   0.0000       0.298976         8.1355 
 252   0.0000       0.301841         8.2135 
 253   0.0000       0.306374         8.3369 
 254   0.0000       0.308304         8.3894 
 255   0.0000       0.309860         8.4317 
 256   0.0000       0.313085         8.5195 
 257   0.0000       0.314063         8.5461 
 258   0.0000       0.319397         8.6912 
 259   0.0000       0.323103         8.7921 
 260   0.0000       0.324683         8.8351 
 261   0.0000       0.328931         8.9507 
 262   0.0000       0.332056         9.0357 
 263   0.0000       0.333354         9.0710 
 264   0.0000       0.335027         9.1165 
 265   0.0000       0.338515         9.2115 
 266   0.0000       0.339480         9.2377 
 267   0.0000       0.340843         9.2748 
 268   0.0000       0.343104         9.3363 
 269   0.0000       0.344418         9.3721 
 270   0.0000       0.347625         9.4593 
 271   0.0000       0.349842         9.5197 
 272   0.0000       0.352582         9.5942 
 273   0.0000       0.353362         9.6155 
 274   0.0000       0.355092         9.6625 
 275   0.0000       0.357358         9.7242 
 276   0.0000       0.358185         9.7467 
 277   0.0000       0.360239         9.8026 
 278   0.0000       0.362595         9.8667 
 279   0.0000       0.364418         9.9163 
 280   0.0000       0.365138         9.9359 
 281   0.0000       0.372502        10.1363 
 282   0.0000       0.373432        10.1616 
 283   0.0000       0.375133        10.2079 
 284   0.0000       0.378195        10.2912 
 285   0.0000       0.380579        10.3561 
 286   0.0000       0.385560        10.4916 
 287   0.0000       0.387338        10.5400 
 288   0.0000       0.389549        10.6002 
 289   0.0000       0.392214        10.6727 
 290   0.0000       0.396685        10.7944 
 291   0.0000       0.398395        10.8409 
 292   0.0000       0.399792        10.8789 
 293   0.0000       0.401282        10.9194 
 294   0.0000       0.402703        10.9581 
 295   0.0000       0.407718        11.0946 
 296   0.0000       0.411080        11.1861 
 297   0.0000       0.414000        11.2655 
 298   0.0000       0.416504        11.3337 
 299   0.0000       0.416834        11.3426 
 300   0.0000       0.419419        11.4130 
 301   0.0000       0.422073        11.4852 
 302   0.0000       0.423697        11.5294 
 303   0.0000       0.424500        11.5512 
 304   0.0000       0.426829        11.6146 
 305   0.0000       0.428569        11.6620 
 306   0.0000       0.432186        11.7604 
 307   0.0000       0.436014        11.8645 
 308   0.0000       0.437926        11.9166 
 309   0.0000       0.440467        11.9857 
 310   0.0000       0.442561        12.0427 
 311   0.0000       0.448670        12.2089 
 312   0.0000       0.452890        12.3238 
 313   0.0000       0.453998        12.3539 
 314   0.0000       0.455243        12.3878 
 315   0.0000       0.460478        12.5303 
 316   0.0000       0.464124        12.6295 
 317   0.0000       0.465340        12.6626 
 318   0.0000       0.466124        12.6839 
 319   0.0000       0.472510        12.8576 
 320   0.0000       0.473078        12.8731 
 321   0.0000       0.475473        12.9383 
 322   0.0000       0.479169        13.0389 
 323   0.0000       0.483271        13.1505 
 324   0.0000       0.483937        13.1686 
 325   0.0000       0.486983        13.2515 
 326   0.0000       0.489272        13.3138 
 327   0.0000       0.490008        13.3338 
 328   0.0000       0.490370        13.3436 
 329   0.0000       0.493876        13.4390 
 330   0.0000       0.496450        13.5091 
 331   0.0000       0.498539        13.5659 
 332   0.0000       0.500311        13.6142 
 333   0.0000       0.502788        13.6815 
 334   0.0000       0.505489        13.7550 
 335   0.0000       0.507178        13.8010 
 336   0.0000       0.509266        13.8578 
 337   0.0000       0.511212        13.9108 
 338   0.0000       0.512068        13.9341 
 339   0.0000       0.516540        14.0558 
 340   0.0000       0.520368        14.1599 
 341   0.0000       0.524061        14.2604 
 342   0.0000       0.526735        14.3332 
 343   0.0000       0.530513        14.4360 
 344   0.0000       0.535758        14.5787 
 345   0.0000       0.536697        14.6043 
 346   0.0000       0.539647        14.6845 
 347   0.0000       0.542416        14.7599 
 348   0.0000       0.545643        14.8477 
 349   0.0000       0.548546        14.9267 
 350   0.0000       0.549504        14.9528 
 351   0.0000       0.550410        14.9774 
 352   0.0000       0.553172        15.0526 
 353   0.0000       0.554306        15.0834 
 354   0.0000       0.557033        15.1576 
 355   0.0000       0.557862        15.1802 
 356   0.0000       0.560399        15.2492 
 357   0.0000       0.564310        15.3557 
 358   0.0000       0.566517        15.4157 
 359   0.0000       0.567530        15.4433 
 360   0.0000       0.571825        15.5601 
 361   0.0000       0.572991        15.5919 
 362   0.0000       0.576423        15.6853 
 363   0.0000       0.579346        15.7648 
 364   0.0000       0.583179        15.8691 
 365   0.0000       0.584660        15.9094 
 366   0.0000       0.592126        16.1126 
 367   0.0000       0.593359        16.1461 
 368   0.0000       0.602607        16.3978 
 369   0.0000       0.604314        16.4442 
 370   0.0000       0.608353        16.5541 
 371   0.0000       0.611839        16.6490 
 372   0.0000       0.613104        16.6834 
 373   0.0000       0.613832        16.7032 
 374   0.0000       0.619739        16.8640 
 375   0.0000       0.621898        16.9227 
 376   0.0000       0.628125        17.0921 
 377   0.0000       0.629279        17.1235 
 378   0.0000       0.631899        17.1948 
 379   0.0000       0.635217        17.2851 
 380   0.0000       0.637103        17.3364 
 381   0.0000       0.642349        17.4792 
 382   0.0000       0.643215        17.5028 
 383   0.0000       0.649746        17.6805 
 384   0.0000       0.654310        17.8047 
 385   0.0000       0.658169        17.9097 
 386   0.0000       0.660598        17.9758 
 387   0.0000       0.663623        18.0581 
 388   0.0000       0.664671        18.0866 
 389   0.0000       0.669740        18.2245 
 390   0.0000       0.671281        18.2665 
 391   0.0000       0.677017        18.4226 
 392   0.0000       0.679539        18.4912 
 393   0.0000       0.682194        18.5634 
 394   0.0000       0.685877        18.6637 
 395   0.0000       0.687897        18.7186 
 396   0.0000       0.689508        18.7625 
 397   0.0000       0.691882        18.8271 
 398   0.0000       0.693983        18.8842 
 399   0.0000       0.695895        18.9363 
 400   0.0000       0.699222        19.0268 
 401   0.0000       0.701625        19.0922 
 402   0.0000       0.703035        19.1305 
 403   0.0000       0.708520        19.2798 
 404   0.0000       0.711817        19.3695 
 405   0.0000       0.715700        19.4752 
 406   0.0000       0.718526        19.5521 
 407   0.0000       0.719349        19.5745 
 408   0.0000       0.723341        19.6831 
 409   0.0000       0.730140        19.8681 
 410   0.0000       0.733440        19.9579 
 411   0.0000       0.735390        20.0110 
 412   0.0000       0.739651        20.1269 
 413   0.0000       0.742871        20.2145 
 414   0.0000       0.744262        20.2524 
 415   0.0000       0.746441        20.3117 
 416   0.0000       0.748549        20.3691 
 417   0.0000       0.751102        20.4385 
 418   0.0000       0.756655        20.5896 
 419   0.0000       0.758228        20.6324 
 420   0.0000       0.763802        20.7841 
 421   0.0000       0.769041        20.9267 
 422   0.0000       0.770240        20.9593 
 423   0.0000       0.772308        21.0156 
 424   0.0000       0.776074        21.1181 
 425   0.0000       0.779726        21.2174 
 426   0.0000       0.784062        21.3354 
 427   0.0000       0.787727        21.4351 
 428   0.0000       0.789739        21.4899 
 429   0.0000       0.792634        21.5687 
 430   0.0000       0.795943        21.6587 
 431   0.0000       0.798774        21.7357 
 432   0.0000       0.799567        21.7573 
 433   0.0000       0.806413        21.9436 
 434   0.0000       0.807392        21.9703 
 435   0.0000       0.808763        22.0076 
 436   0.0000       0.815639        22.1947 
 437   0.0000       0.818656        22.2768 
 438   0.0000       0.819650        22.3038 
 439   0.0000       0.824230        22.4284 
 440   0.0000       0.827148        22.5078 
 441   0.0000       0.827921        22.5289 
 442   0.0000       0.828739        22.5511 
 443   0.0000       0.831895        22.6370 
 444   0.0000       0.836626        22.7658 
 445   0.0000       0.839239        22.8368 
 446   0.0000       0.840999        22.8847 
 447   0.0000       0.844627        22.9835 
 448   0.0000       0.846671        23.0391 
 449   0.0000       0.848182        23.0802 
 450   0.0000       0.854177        23.2433 
 451   0.0000       0.860866        23.4254 
 452   0.0000       0.861642        23.4465 
 453   0.0000       0.865223        23.5439 
 454   0.0000       0.869401        23.6576 
 455   0.0000       0.874367        23.7927 
 456   0.0000       0.880786        23.9674 
 457   0.0000       0.885143        24.0860 
 458   0.0000       0.888227        24.1699 
 459   0.0000       0.892522        24.2868 
 460   0.0000       0.894788        24.3484 
 461   0.0000       0.898902        24.4604 
 462   0.0000       0.903125        24.5753 
 463   0.0000       0.908612        24.7246 
 464   0.0000       0.909242        24.7417 
 465   0.0000       0.914685        24.8898 
 466   0.0000       0.916111        24.9287 
 467   0.0000       0.918348        24.9895 
 468   0.0000       0.929966        25.3057 
 469   0.0000       0.932007        25.3612 
 470   0.0000       0.936854        25.4931 
 471   0.0000       0.942888        25.6573 
 472   0.0000       0.944658        25.7055 
 473   0.0000       0.946856        25.7653 
 474   0.0000       0.949527        25.8379 
 475   0.0000       0.951789        25.8995 
 476   0.0000       0.956407        26.0252 
 477   0.0000       0.958254        26.0754 
 478   0.0000       0.965253        26.2659 
 479   0.0000       0.967658        26.3313 
 480   0.0000       0.972362        26.4593 
 481   0.0000       0.974546        26.5187 
 482   0.0000       0.980497        26.6807 
 483   0.0000       0.985962        26.8294 
 484   0.0000       0.986983        26.8572 
 485   0.0000       0.992538        27.0083 
 486   0.0000       0.994812        27.0702 
 487   0.0000       0.997684        27.1484 
 488   0.0000       1.003208        27.2987 
 489   0.0000       1.006216        27.3805 
 490   0.0000       1.009606        27.4728 
 491   0.0000       1.010809        27.5055 
 492   0.0000       1.017641        27.6914 
 493   0.0000       1.021669        27.8010 
 494   0.0000       1.028489        27.9866 
 495   0.0000       1.034588        28.1526 
 496   0.0000       1.041611        28.3437 
 497   0.0000       1.047276        28.4978 
 498   0.0000       1.050367        28.5819 
 499   0.0000       1.054791        28.7023 
 500   0.0000       1.064121        28.9562 
 501   0.0000       1.070426        29.1278 
 502   0.0000       1.073367        29.2078 
 503   0.0000       1.077359        29.3164 
 504   0.0000       1.079816        29.3833 
 505   0.0000       1.081792        29.4371 
 506   0.0000       1.084766        29.5180 
 507   0.0000       1.091199        29.6930 
 508   0.0000       1.096481        29.8368 
 509   0.0000       1.099617        29.9221 
 510   0.0000       1.105542        30.0833 
 511   0.0000       1.110455        30.2170 
 512   0.0000       1.115347        30.3501 
 513   0.0000       1.119320        30.4582 
 514   0.0000       1.124441        30.5976 
 515   0.0000       1.126780        30.6612 
 516   0.0000       1.129366        30.7316 
 517   0.0000       1.133439        30.8425 
 518   0.0000       1.141154        31.0524 
 519   0.0000       1.148468        31.2514 
 520   0.0000       1.153300        31.3829 
 521   0.0000       1.160646        31.5828 
 522   0.0000       1.166581        31.7443 
 523   0.0000       1.168483        31.7960 
 524   0.0000       1.172468        31.9045 
 525   0.0000       1.175333        31.9824 
 526   0.0000       1.182720        32.1834 
 527   0.0000       1.186633        32.2899 
 528   0.0000       1.190201        32.3870 
 529   0.0000       1.194472        32.5032 
 530   0.0000       1.201117        32.6841 
 531   0.0000       1.208723        32.8910 
 532   0.0000       1.213018        33.0079 
 533   0.0000       1.214745        33.0549 
 534   0.0000       1.218338        33.1527 
 535   0.0000       1.223325        33.2884 
 536   0.0000       1.225128        33.3374 
 537   0.0000       1.230310        33.4784 
 538   0.0000       1.231759        33.5179 
 539   0.0000       1.235150        33.6101 
 540   0.0000       1.239194        33.7202 
 541   0.0000       1.242214        33.8024 
 542   0.0000       1.244209        33.8566 
 543   0.0000       1.247467        33.9453 
 544   0.0000       1.251605        34.0579 
 545   0.0000       1.255619        34.1671 
 546   0.0000       1.259352        34.2687 
 547   0.0000       1.264747        34.4155 
 548   0.0000       1.270621        34.5753 
 549   0.0000       1.282102        34.8878 
 550   0.0000       1.283737        34.9323 
 551   0.0000       1.286215        34.9997 
 552   0.0000       1.294853        35.2347 
 553   0.0000       1.297213        35.2990 
 554   0.0000       1.303395        35.4672 
 555   0.0000       1.306367        35.5480 
 556   0.0000       1.309913        35.6445 
 557   0.0000       1.319080        35.8940 
 558   0.0000       1.321122        35.9496 
 559   0.0000       1.327258        36.1165 
 560   0.0000       1.330769        36.2121 
 561   0.0000       1.338198        36.4142 
 562   0.0000       1.342368        36.5277 
 563   0.0000       1.350564        36.7507 
 564   0.0000       1.353997        36.8441 
 565   0.0000       1.357762        36.9466 
 566   0.0000       1.368121        37.2285 
 567   0.0000       1.374972        37.4149 
 568   0.0000       1.380068        37.5536 
 569   0.0000       1.390764        37.8446 
 570   0.0000       1.396631        38.0043 
 571   0.0000       1.399412        38.0799 
 572   0.0000       1.402336        38.1595 
 573   0.0000       1.404509        38.2186 
 574   0.0000       1.406901        38.2837 
 575   0.0000       1.415771        38.5251 
 576   0.0000       1.421233        38.6737 
 577   0.0000       1.429372        38.8952 
 578   0.0000       1.431786        38.9609 
 579   0.0000       1.440233        39.1907 
 580   0.0000       1.443513        39.2800 
 581   0.0000       1.447722        39.3945 
 582   0.0000       1.453987        39.5650 
 583   0.0000       1.458245        39.6809 
 584   0.0000       1.460827        39.7511 
 585   0.0000       1.469537        39.9881 
 586   0.0000       1.473417        40.0937 
 587   0.0000       1.476498        40.1775 
 588   0.0000       1.479501        40.2593 
 589   0.0000       1.482851        40.3504 
 590   0.0000       1.489209        40.5234 
 591   0.0000       1.492331        40.6084 
 592   0.0000       1.496453        40.7206 
 593   0.0000       1.498360        40.7724 
 594   0.0000       1.500451        40.8293 
 595   0.0000       1.506110        40.9833 
 596   0.0000       1.510699        41.1082 
 597   0.0000       1.514660        41.2160 
 598   0.0000       1.515259        41.2323 
 599   0.0000       1.522720        41.4353 
 600   0.0000       1.526484        41.5378 
 601   0.0000       1.532764        41.7086 
 602   0.0000       1.534609        41.7588 
 603   0.0000       1.539646        41.8959 
 604   0.0000       1.543028        41.9879 
 605   0.0000       1.545310        42.0500 
 606   0.0000       1.551127        42.2083 
 607   0.0000       1.554701        42.3056 
 608   0.0000       1.559062        42.4242 
 609   0.0000       1.560993        42.4768 
 610   0.0000       1.564914        42.5835 
 611   0.0000       1.568942        42.6931 
 612   0.0000       1.572907        42.8010 
 613   0.0000       1.576119        42.8884 
 614   0.0000       1.581859        43.0446 
 615   0.0000       1.585357        43.1398 
 616   0.0000       1.587657        43.2023 
 617   0.0000       1.590114        43.2692 
 618   0.0000       1.592430        43.3322 
 619   0.0000       1.596292        43.4373 
 620   0.0000       1.597440        43.4686 
 621   0.0000       1.600602        43.5546 
 622   0.0000       1.602367        43.6026 
 623   0.0000       1.604563        43.6624 
 624   0.0000       1.605570        43.6898 
 625   0.0000       1.608546        43.7708 
 626   0.0000       1.611204        43.8431 
 627   0.0000       1.615639        43.9638 
 628   0.0000       1.616993        44.0006 
 629   0.0000       1.620187        44.0875 
 630   0.0000       1.624517        44.2054 
 631   0.0000       1.625736        44.2385 
 632   0.0000       1.627685        44.2916 
 633   0.0000       1.631063        44.3835 
 634   0.0000       1.633193        44.4414 
 635   0.0000       1.636206        44.5234 
[...]
 285   9.232     134.3   0.012977   0.012247   4.276468   4.687834     0.33 (  93-> 107)    0.08 (  95-> 112)    0.04 (  93-> 109)
 286   9.238     134.2   0.005909   0.004851  -15.569656  -13.411652     0.08 (  95-> 112)    0.05 (  93-> 107)    0.03 (  94-> 109)
 287   9.247     134.1   0.028891   0.025093  27.770678  24.975945     0.05 (  71-> 108)    0.03 (  68->  99)    0.03 (  68-> 102)
 288   9.256     134.0   0.013444   0.011587  -26.476010  -23.449567     0.03 (  92-> 115)    0.02 (  82->  98)    0.02 (  82-> 104)
 289   9.261     133.9   0.001216   0.001120  -3.657464  -2.348883     0.05 (  83-> 110)    0.03 (  95-> 112)    0.03 (  92-> 114)
 290   9.266     133.8   0.010342   0.009131  24.517617  23.860537     0.16 (  71-> 108)    0.05 (  66-> 103)    0.04 (  66-> 108)
 291   9.270     133.7   0.004041   0.003529  -3.145735  -2.261893     0.06 (  94-> 110)    0.04 (  95-> 112)    0.03 (  71-> 108)
 292   9.287     133.5   0.016352   0.014557  19.134497  20.272693     0.04 (  66-> 103)    0.03 (  80-> 107)    0.03 (  84-> 108)
 293   9.293     133.4   0.018751   0.016774  -11.627735  -10.868191     0.02 (  87-> 121)    0.02 (  88-> 121)    0.02 (  84-> 108)
 294   9.300     133.3   0.037833   0.034329  -64.330403  -57.544983     0.11 (  96-> 119)    0.03 (  69-> 100)    0.03 (  76-> 113)
 295   9.304     133.3   0.009565   0.009162  30.013982  29.739713     0.06 (  80-> 107)    0.06 (  87->  99)    0.05 (  66-> 103)
 296   9.309     133.2   0.001266   0.001357  -11.542034  -13.370516     0.05 (  80-> 107)    0.02 (  93-> 142)    0.02 (  75-> 106)
 297   9.318     133.1   0.016328   0.014639  35.107728  34.553083     0.06 (  87->  99)    0.06 (  94-> 110)    0.05 (  84->  98)
 298   9.336     132.8   0.022583   0.018662  -1.348402  -3.463579     0.06 (  68-> 100)    0.05 (  75-> 106)    0.03 (  92-> 115)
 299   9.340     132.7   0.009218   0.008386  -20.475033  -15.152011     0.09 (  94-> 110)    0.09 (  84->  98)    0.03 (  93-> 142)
 300   9.342     132.7   0.006858   0.006618  -4.948465  -5.780166     0.16 (  84->  98)    0.04 (  84->  99)    0.03 (  86->  98)
 301   9.350     132.6   0.017968   0.015282   0.155667  -0.681981     0.06 (  96-> 119)    0.03 (  84->  98)    0.03 (  69-> 100)
 302   9.359     132.5   0.005673   0.005400  -21.667408  -22.048759     0.07 (  84->  98)    0.04 (  87->  99)    0.02 (  84->  99)
 303   9.367     132.4   0.002706   0.002230  20.320014  18.186672     0.26 (  65-> 103)    0.06 (  64-> 103)    0.04 (  77-> 112)
 304   9.371     132.3   0.011244   0.010467  16.825847  18.555240     0.03 (  89-> 114)    0.03 (  94-> 110)    0.02 (  88-> 120)
 305   9.381     132.2   0.005814   0.004935   9.465467   8.330731     0.02 (  67->  99)    0.02 (  82->  98)    0.02 (  88-> 125)
 306   9.385     132.1   0.008522   0.007815  -56.715779  -50.211206     0.03 (  90-> 125)    0.02 (  90-> 109)    0.02 (  88-> 125)
 307   9.392     132.0   0.007148   0.005996  -11.647408  -9.563478     0.08 (  75-> 106)    0.03 (  73-> 103)    0.02 (  81->  97)
 308   9.406     131.8   0.003914   0.003136   5.663175   4.679911     0.03 (  96-> 119)    0.03 (  88-> 125)    0.02 (  96-> 143)
 309   9.413     131.7   0.009608   0.007785  -4.014536  -1.807182     0.05 (  93-> 139)    0.05 (  69-> 100)    0.05 (  93-> 110)
 310   9.415     131.7   0.004013   0.003506  -7.995590  -7.647792     0.05 (  75-> 106)    0.04 (  64-> 103)    0.03 (  84-> 108)
 311   9.418     131.6   0.067215   0.057838  56.463288  49.506164     0.13 (  69-> 100)    0.05 (  70-> 100)    0.02 (  70-> 107)
 312   9.428     131.5   0.006160   0.005900  -6.902238  -8.361817     0.03 (  84-> 112)    0.03 (  93-> 110)    0.03 (  73-> 103)
 313   9.436     131.4   0.024770   0.020287  -9.502273  -9.130291     0.11 (  75-> 106)    0.04 (  69-> 100)    0.03 (  68-> 100)
 314   9.446     131.3   0.062445   0.053206   0.469135  -2.432486     0.04 (  69-> 100)    0.02 (  93-> 109)    0.02 (  95-> 121)
 315   9.454     131.1   0.004875   0.003517   4.991909   2.429709     0.02 (  69-> 100)    0.02 (  64-> 103)    0.02 (  95-> 121)
 316   9.469     130.9   0.007995   0.006708  13.500236  12.291184     0.23 (  93-> 109)    0.04 (  93-> 107)    0.04 (  93-> 111)
 317   9.474     130.9   0.025440   0.020342  10.669765  13.051763     0.03 (  80-> 109)    0.02 (  75-> 109)    0.02 (  91-> 119)
 318   9.481     130.8   0.001777   0.001012   7.460874   7.616395     0.03 (  93-> 109)    0.02 (  95-> 119)    0.02 (  96-> 141)
 319   9.484     130.7   0.007242   0.007078  12.221882  12.012729     0.20 (  93-> 109)    0.04 (  93-> 107)    0.03 (  93-> 111)
 320   9.490     130.7   0.010999   0.009483  12.407869  11.884790     0.05 (  91-> 119)    0.04 (  90-> 108)    0.04 (  84-> 112)
 321   9.492     130.6   0.015638   0.014700  56.435580  53.999550     0.05 (  94-> 114)    0.04 (  93-> 109)    0.03 (  91-> 104)
 322   9.497     130.5   0.007991   0.006399  -17.530070  -16.090583     0.05 (  91-> 105)    0.03 (  89-> 105)    0.03 (  93-> 109)
 323   9.506     130.4   0.057492   0.045964  -45.734010  -40.537583     0.05 (  68-> 100)    0.03 (  67-> 100)    0.03 (  91-> 105)
 324   9.513     130.3   0.046497   0.035794  59.805788  53.600636     0.05 (  91-> 104)    0.03 (  68-> 100)    0.03 (  85-> 107)
 325   9.520     130.2   0.012139   0.010663  31.162327  31.309309     0.03 (  89-> 125)    0.03 (  96-> 151)    0.03 (  68-> 100)
 326   9.522     130.2   0.016951   0.015113  -37.475203  -36.927479     0.08 (  90-> 103)    0.05 (  92-> 108)    0.05 (  89-> 103)
 327   9.542     129.9   0.008478   0.007473  20.982638  20.103050     0.05 (  90-> 108)    0.03 (  91-> 105)    0.02 (  90-> 112)
 328   9.553     129.8   0.001661   0.001280   2.492090   2.655478     0.03 (  82->  98)    0.02 (  90-> 132)    0.02 (  82-> 102)
 329   9.560     129.7   0.004044   0.003849  -2.559959  -2.428598     0.03 (  94-> 114)    0.02 (  80->  97)    0.02 (  79-> 106)
 330   9.568     129.6   0.032987   0.026878  -40.108901  -38.689817     0.02 (  94-> 114)    0.02 (  90-> 103)    0.02 (  93-> 139)
 331   9.577     129.5   0.012079   0.010358  44.766984  41.866242     0.08 (  93-> 110)    0.06 (  93-> 139)    0.04 (  94-> 114)
 332   9.580     129.4   0.059258   0.049926  23.273078  18.239774     0.04 (  93-> 110)    0.03 (  80-> 111)    0.02 (  93-> 139)
 333   9.585     129.3   0.017817   0.015762  11.279676   7.165512     0.07 (  71->  99)    0.04 (  87-> 125)    0.04 (  71->  97)
 334   9.589     129.3   0.011986   0.009574   6.456751   4.846202     0.05 (  92-> 108)    0.05 (  94-> 114)    0.02 (  80->  97)
 335   9.592     129.3   0.014802   0.011288   3.666712   2.039106     0.06 (  94-> 113)    0.06 (  94-> 114)    0.04 (  93-> 110)
 336   9.594     129.2   0.004101   0.003230  -4.582354  -3.512475     0.14 (  93-> 110)    0.10 (  94-> 114)    0.06 (  94-> 113)
 337   9.603     129.1   0.008061   0.006659  -15.516646  -13.652183     0.23 (  92-> 108)    0.08 (  90-> 103)    0.06 (  89-> 103)
 338   9.607     129.1   0.021614   0.017303  -9.910484  -8.716837     0.08 (  93-> 110)    0.03 (  71->  99)    0.03 (  92-> 108)
 339   9.608     129.0   0.025917   0.023140  36.610518  37.342843     0.04 (  93-> 110)    0.04 (  83-> 101)    0.02 (  75-> 106)
 340   9.623     128.8   0.061537   0.051948  -77.807688  -76.902001     0.02 (  92-> 132)    0.02 (  95-> 148)    0.02 (  95-> 112)
 341   9.626     128.8   0.009263   0.006707  -12.902474  -11.970979     0.04 (  87-> 125)    0.04 (  88-> 131)    0.04 (  80-> 111)
 342   9.632     128.7   0.022989   0.019146   7.816864   4.463219     0.05 (  75-> 111)    0.03 (  80-> 109)    0.02 (  67-> 100)
 343   9.641     128.6   0.020676   0.015784  17.910613  18.507769     0.03 (  85-> 107)    0.03 (  63-> 100)    0.03 (  67-> 100)
 344   9.648     128.5   0.045970   0.043504  -22.089883  -25.241013     0.03 (  94-> 113)    0.03 (  93-> 140)    0.02 (  73->  99)
 345   9.657     128.4   0.042086   0.033035  -5.256229  -2.631870     0.04 (  80->  97)    0.02 (  96-> 122)    0.02 (  94-> 111)
 346   9.662     128.3   0.015127   0.012032  -5.509039  -6.729494     0.06 (  94-> 113)    0.04 (  91-> 104)    0.03 (  94-> 140)
 347   9.675     128.1   0.004985   0.004128  -0.960933   0.530297     0.02 (  78-> 110)    0.02 (  91-> 105)    0.01 (  82-> 110)
 348   9.689     128.0   0.058182   0.047423  -19.698655  -19.958591     0.04 (  79-> 104)    0.03 (  60-> 104)    0.03 (  73-> 104)
 349   9.694     127.9   0.003301   0.002663  -2.158665  -2.849692     0.08 (  92-> 108)    0.05 (  95-> 118)    0.04 (  95-> 117)
 350   9.698     127.8   0.005352   0.004878  -23.525732  -23.331669     0.07 (  92-> 108)    0.04 (  95-> 118)    0.02 (  85-> 101)
 351   9.701     127.8   0.015420   0.013227  -12.523715  -11.938755     0.32 (  94-> 111)    0.12 (  94-> 113)    0.07 (  94-> 109)
 352   9.709     127.7   0.021894   0.017881  26.434069  22.989796     0.09 (  96-> 122)    0.07 (  94-> 111)    0.03 (  85-> 101)
 353   9.715     127.6   0.011013   0.009174  12.414110  11.955347     0.09 (  94-> 111)    0.03 (  86-> 122)    0.03 (  91-> 123)
 354   9.720     127.6   0.042345   0.036397  -9.885295  -7.351526     0.08 (  84-> 108)    0.02 (  94-> 111)    0.02 (  93-> 110)
 355   9.724     127.5   0.012537   0.009787   6.980548   6.465683     0.07 (  94-> 111)    0.06 (  94-> 113)    0.06 (  91-> 122)
 356   9.730     127.4   0.003626   0.002860   2.567582   2.999958     0.10 (  96-> 122)    0.10 (  91-> 104)    0.04 (  85-> 101)
 357   9.740     127.3   0.004157   0.004008   9.353023   9.345749     0.21 (  91-> 104)    0.15 (  91-> 105)    0.12 (  90-> 104)
 358   9.741     127.3   0.002374   0.002170  11.401469  11.556892     0.06 (  86-> 100)    0.02 (  94-> 111)    0.02 (  78-> 111)
 359   9.751     127.2   0.003057   0.002575   2.256690   2.354017     0.72 (  86-> 100)    0.02 (  84-> 100)    0.01 (  68-> 100)
 360   9.752     127.1   0.005325   0.005070  17.931417  17.614911     0.06 (  86-> 100)    0.05 (  91-> 105)    0.03 (  96-> 122)
 361   9.757     127.1   0.004557   0.003998   1.935579   1.257963     0.06 (  61->  98)    0.06 (  59->  98)    0.04 (  61->  99)
 362   9.763     127.0   0.045939   0.041806  27.418096  27.255546     0.03 (  83->  97)    0.02 (  86-> 100)    0.02 (  95-> 118)
 363   9.765     127.0   0.003696   0.004511   7.549347   8.064372     0.03 (  83->  97)    0.03 (  96-> 122)    0.02 (  67-> 102)
 364   9.769     126.9   0.000833   0.000800  10.153780   9.332919     0.05 (  91-> 105)    0.02 (  95-> 116)    0.02 (  56->  97)
 365   9.778     126.8   0.004913   0.004473   2.342379   3.660538     0.15 (  75-> 107)    0.07 (  80-> 115)    0.01 (  91-> 105)
 366   9.784     126.7   0.019121   0.016896   2.282140   3.168798     0.03 (  56->  97)    0.02 (  81-> 117)    0.02 (  76->  99)
 367   9.798     126.5   0.021700   0.018872  -3.389987  -3.237580     0.16 (  84-> 112)    0.11 (  86-> 118)    0.04 (  86-> 117)
 368   9.804     126.5   0.030666   0.025573  24.387274  22.376847     0.04 (  70-> 104)    0.04 (  69-> 104)    0.04 (  91-> 105)
 369   9.807     126.4   0.005438   0.003929  -13.797007  -12.992776     0.07 (  96-> 122)    0.07 (  96-> 123)    0.04 (  83->  97)
 370   9.812     126.4   0.016707   0.014767  27.228406  26.836456     0.07 (  91-> 105)    0.04 (  90-> 105)    0.04 (  91-> 104)
 371   9.820     126.3   0.024560   0.019942  -29.692893  -26.941538     0.02 (  75-> 107)    0.02 (  88-> 129)    0.01 (  83->  97)
 372   9.826     126.2   0.051991   0.041573  -66.220668  -66.226702     0.03 (  70-> 104)    0.03 (  70-> 105)    0.03 (  92-> 112)
 373   9.834     126.1   0.006526   0.004889  -33.711580  -29.111475     0.10 (  94-> 142)    0.08 (  91-> 128)    0.05 (  91-> 129)
 374   9.836     126.1   0.002661   0.002411  -12.311416  -13.807771     0.03 (  96-> 150)    0.02 (  92-> 117)    0.02 (  70-> 104)
 375   9.838     126.0   0.004777   0.004069   2.566575   3.086217     0.06 (  94-> 142)    0.03 (  96-> 123)    0.03 (  75->  98)
 376   9.846     125.9   0.041571   0.033806  15.148518  14.183086     0.03 (  96-> 126)    0.02 (  94-> 142)    0.02 (  88-> 131)
 377   9.859     125.8   0.000845   0.000744   0.802708   0.800323     0.06 (  95-> 116)    0.04 (  96-> 123)    0.02 (  83->  99)
 378   9.862     125.7   0.059718   0.054660  -55.876299  -55.658180     0.03 (  93-> 140)    0.03 (  73->  99)    0.02 (  74->  99)
 379   9.865     125.7   0.028485   0.022329  -116.698511  -101.547282     0.05 (  88-> 131)    0.03 (  75-> 107)    0.03 (  70-> 104)
 380   9.877     125.5   0.012070   0.008992  -9.336178  -7.380460     0.25 (  93-> 114)    0.04 (  93-> 111)    0.03 (  93-> 113)
 381   9.884     125.4   0.009164   0.007059  15.172257  13.051065     0.13 (  93-> 114)    0.05 (  89-> 103)    0.04 (  88-> 103)
 382   9.886     125.4   0.007178   0.006082  -3.601924  -2.000185     0.10 (  92-> 112)    0.05 (  88-> 103)    0.05 (  89-> 103)
 383   9.890     125.4   0.014450   0.012945  14.511520  14.536291     0.09 (  88-> 103)    0.08 (  89-> 103)    0.06 (  92-> 112)
 384   9.894     125.3   0.025686   0.021243  45.286015  38.993077     0.10 (  95-> 116)    0.03 (  93-> 114)    0.03 (  70-> 104)
 385   9.903     125.2   0.000753   0.000759  -0.115005   0.211539     0.11 (  88-> 103)    0.11 (  89-> 103)    0.06 (  92-> 112)
 386   9.908     125.1   0.007506   0.006260  -8.233109  -7.320705     0.12 (  95-> 116)    0.09 (  92-> 112)    0.05 (  95-> 117)
 387   9.912     125.1   0.020257   0.018296  19.439732  18.958566     0.06 (  88-> 103)    0.06 (  92-> 112)    0.05 (  89-> 103)
 388   9.918     125.0   0.006296   0.005055  -3.393556  -3.498818     0.04 (  68-> 100)    0.03 (  91-> 107)    0.02 (  83-> 114)
 389   9.925     124.9   0.004339   0.003625  -6.874728  -4.953558     0.05 (  92-> 112)    0.03 (  95-> 118)    0.02 (  91-> 107)
 390   9.931     124.8   0.010022   0.008668  11.989191   9.721420     0.04 (  84-> 112)    0.03 (  64-> 103)    0.03 (  84-> 108)
 391   9.937     124.8   0.017034   0.014441  16.395083  14.494112     0.04 (  94-> 113)    0.04 (  91-> 107)    0.03 (  95-> 116)
 392   9.942     124.7   0.041991   0.032439  -29.057220  -26.026630     0.02 (  94-> 113)    0.02 (  96-> 124)    0.02 (  84-> 112)
 393   9.948     124.6   0.020542   0.016655  -41.395050  -41.909170     0.04 (  95-> 116)    0.03 (  96-> 123)    0.02 (  94-> 113)
 394   9.951     124.6   0.012186   0.009950   0.618610   1.640697     0.04 (  68-> 100)    0.04 (  96-> 123)    0.03 (  58-> 100)
 395   9.953     124.6   0.026995   0.022996  61.994249  57.815894     0.04 (  91-> 107)    0.04 (  96-> 123)    0.02 (  96-> 124)
 396   9.958     124.5   0.005094   0.004472  -17.114843  -15.776768     0.17 (  91-> 106)    0.03 (  91-> 113)    0.03 (  84-> 119)
 397   9.964     124.4   0.016827   0.013352   8.557596   8.941835     0.05 (  80->  97)    0.04 (  75-> 101)    0.03 (  95-> 116)
 398   9.971     124.3   0.036150   0.030197  30.425466  27.732941     0.10 (  82->  97)    0.03 (  81->  97)    0.03 (  75->  98)
 399   9.976     124.3   0.027918   0.022774   7.039852   6.895076     0.05 (  76-> 104)    0.04 (  76-> 105)    0.04 (  67-> 104)
 400   9.979     124.2   0.033619   0.028291  -12.395525  -12.282359     0.03 (  96-> 133)    0.03 (  82->  97)    0.03 (  96-> 135)
 401   9.987     124.1   0.016640   0.014440  15.382916  19.232612     0.06 (  82->  97)    0.03 (  80->  97)    0.03 (  91-> 106)
 402   9.998     124.0   0.006932   0.006167  -2.345946  -3.875976     0.12 (  93-> 111)    0.04 (  87-> 109)    0.03 (  82->  97)
 403  10.000     124.0   0.000621   0.000548   1.302487   0.965850     0.36 (  93-> 111)    0.05 (  93-> 109)    0.03 (  93-> 112)

sTD-DFT done

Total run time:      111.600 sec

           *** ORCA-CIS/TD-DFT FINISHED WITHOUT ERROR ***


-------------------------------------------------------------------------------
                          DFT DISPERSION CORRECTION                            
                                                                               
                              DFTD3 V3.1  Rev 1                                
                              USING zero damping                               
-------------------------------------------------------------------------------
The omegaB97X-D3 functional is recognized. Fit by Chai et al.
Active option DFTDOPT                   ...         3   

molecular C6(AA) [au] = 73055.389157 


            DFT-D V3
 parameters
 s6 scaling factor         :     1.0000 
 rs6 scaling factor        :     1.2810 
 s8 scaling factor         :     1.0000 
 rs8 scaling factor        :     1.0940 
 Damping factor alpha6     :    14.0000 
 Damping factor alpha8     :    16.0000 
 ad hoc parameters k1-k3   :    16.0000     1.3333    -4.0000 

 Edisp/kcal,au: -16.008346955754  -0.025510922002 
 E6   /kcal   :  -7.279314232 
 E8   /kcal   :  -8.729032724 
 % E8         :  54.528008095 

-------------------------   ----------------
Dispersion correction           -0.025510922
-------------------------   ----------------


-------------------------   --------------------
FINAL SINGLE POINT ENERGY     -4575.039260596037
-------------------------   --------------------


                            ***************************************
                            *     ORCA property calculations      *
                            ***************************************

                                    ---------------------
                                    Active property flags
                                    ---------------------
   (+) Dipole Moment
   (+) Quadrupole Moment


------------------------------------------------------------------------------
                       ORCA ELECTRIC PROPERTIES CALCULATION
------------------------------------------------------------------------------

Dipole Moment Calculation                       ... on
Quadrupole Moment Calculation                   ... on
Polarizability Calculation                      ... off
GBWName                                         ... total_job2.gbw
Electron density file                           ... total_job2.scfp.tmp

-------------
DIPOLE MOMENT
-------------
                                X             Y             Z
Electronic contribution:     63.35138      -8.93041       6.86488
Nuclear contribution   :    -65.12336       9.21527      -9.39097
                        -----------------------------------------
Total Dipole Moment    :     -1.77198       0.28486      -2.52609
                        -----------------------------------------
Magnitude (a.u.)       :      3.09874
Magnitude (Debye)      :      7.87638


------------------------
QUADRUPOLE MOMENT (A.U.)
------------------------

                XX           YY           ZZ           XY           XZ           YZ
  NUC     69672.01684   2055.50761   2844.79156  -2416.47015   2021.63759    341.79258
  EL     -69802.64021  -2273.06918  -3053.75705   2431.23705  -2001.93353   -342.75992
  TOT      -130.62337   -217.56157   -208.96549     14.76690     19.70406     -0.96735

--------------------------------------------------------------------------
[[3899,1],4]: A high-performance Open MPI point-to-point messaging module
was unable to find any relevant network interfaces:

Module: OpenFabrics (openib)
  Host: cx1-136-16-2

Another transport will be used instead, although this may result in
lower performance.
--------------------------------------------------------------------------

Timings for individual modules:

Sum of individual times         ...      353.239 sec (=   5.887 min)
GTO integral calculation        ...        8.934 sec (=   0.149 min)   2.5 %
SCF iterations                  ...      224.153 sec (=   3.736 min)  63.5 %
CIS module                      ...      120.152 sec (=   2.003 min)  34.0 %



                             ****ORCA TERMINATED NORMALLY****
TOTAL RUN TIME: 0 days 0 hours 18 minutes 58 seconds 438 msec
