   45
Geometry Step: 1289
    C     -5.01087083      0.12504497      2.87173788      4.11306928
    C     -4.09398855      0.18080779      1.82524373      4.08177961
    C     -4.56191034      0.11125846      0.49895117      4.03402480
    C     -5.96093195     -0.03732993      0.28289841      3.86574183
    C     -6.88745047     -0.08791706      1.33560868      4.16314325
    C     -6.39073841     -0.00079306      2.63338286      4.06701401
    C     -3.93852465      0.10876142     -0.81582455      4.04843207
    C     -4.99832087     -0.06859254     -1.75397976      3.86541073
    N     -6.20109214     -0.13395815     -1.07653373      5.17418827
    C     -4.78719800     -0.17557017     -3.13673557      4.16075888
    C     -3.47167708     -0.11625673     -3.59073217      4.07029891
    C     -2.40945703      0.06470670     -2.69530423      4.13578581
    C     -2.60897586      0.19989691     -1.30855682      3.99298031
    H     -1.39723904      0.12965122     -3.08519152      0.91709912
    H     -7.10833314     -0.26874617     -1.50571794      0.78375167
    H     -3.26287966     -0.20290579     -4.65308980      0.91650924
    H     -3.03500746      0.27133707      2.04359164      0.90565691
    H     -7.95126790     -0.19770373      1.14310503      0.91740441
    H     -7.07771970     -0.03736973      3.47455055      0.92081997
    H     -4.65380755      0.17959540      3.89633745      0.91831763
    C      4.16483317      0.38110368      0.97625529      3.85260397
    N      3.74502482      1.06514861      2.05287320      5.17485210
    O      2.40106741      1.21080454      1.92699490      6.04595730
    C      1.97724414      0.63064654      0.79306232      3.77456515
    C      3.05649210      0.07770831      0.13250101      4.26711972
    C      0.55738911      0.67613963      0.47185838      3.88441554
    N     -0.33593642      1.28114133      1.26870058      5.16244136
    O     -1.54800707      1.13106179      0.67321649      6.05598912
    C     -1.42889180      0.44371581     -0.47232412      3.75572137
    C     -0.09618253      0.12818229     -0.66881102      4.27614081
    H      0.34304290     -0.42722748     -1.48454203      0.88438023
    H      3.05574361     -0.45869450     -0.80501395      0.87870967
    N      7.56972910     -1.68685760     -1.67651442      5.15598853
    C      7.43155437     -1.00564638     -0.52381998      3.87207283
    C      6.04493157     -0.68826623     -0.36164028      3.89465042
    N      5.38358052     -1.18722428     -1.42216806      5.16107741
    O      6.32347589     -1.78079430     -2.19420318      5.91735969
    C      5.57840294      0.04210883      0.78389327      3.98838948
    C      6.54978032      0.41040251      1.70352689      4.10534102
    C      7.92938679      0.09158493      1.53686350      4.08309774
    C      8.39599362     -0.60726356      0.44655686      4.11898147
    H      8.62649686      0.41754219      2.30469981      0.91516918
    H      6.25023575      0.96498767      2.58878030      0.90484854
    H     -5.61773497     -0.30943714     -3.82398262      0.91415372
    H      9.44963845     -0.84438407      0.33039552      0.90378694
