
                                 *****************
                                 * O   R   C   A *
                                 *****************

           --- An Ab Initio, DFT and Semiempirical electronic structure package ---

                  #######################################################
                  #                        -***-                        #
                  #  Department of molecular theory and spectroscopy    #
                  #              Directorship: Frank Neese              #
                  # Max Planck Institute for Chemical Energy Conversion #
                  #                  D-45470 Muelheim/Ruhr              #
                  #                       Germany                       #
                  #                                                     #
                  #                  All rights reserved                #
                  #                        -***-                        #
                  #######################################################


                         Program Version 4.0.0 -  RELEASE  -


 With contributions from (in alphabetic order):
   Daniel Aravena         : Magnetic Properties
   Michael Atanasov       : Ab Initio Ligand Field Theory
   Ute Becker             : Parallelization
   Martin Brehm           : Molecular dynamics
   Dmytro Bykov           : SCF Hessian
   Vijay G. Chilkuri      : MRCI spin determinant printing
   Dipayan Datta          : RHF DLPNO-CCSD density
   Achintya Kumar Dutta   : EOM-CC, STEOM-CC
   Dmitry Ganyushin       : Spin-Orbit,Spin-Spin,Magnetic field MRCI
   Yang Guo               : DLPNO-NEVPT2, CIM, IAO-localization
   Andreas Hansen         : Spin unrestricted coupled pair/coupled cluster methods
   Lee Huntington         : MR-EOM, pCC
   Robert Izsak           : Overlap fitted RIJCOSX, COSX-SCS-MP3, EOM
   Christian Kollmar      : KDIIS, OOCD, Brueckner-CCSD(T), CCSD density
   Simone Kossmann        : Meta GGA functionals, TD-DFT gradient, OOMP2, MP2 Hessian
   Martin Krupicka        : AUTO-CI
   Dagmar Lenk            : GEPOL surface
   Dimitrios Liakos       : Extrapolation schemes; parallel MDCI
   Dimitrios Manganas     : ROCIS; embedding schemes
   Dimitrios Pantazis     : SARC Basis sets
   Taras Petrenko         : DFT Hessian,TD-DFT gradient, ASA, ECA, R-Raman, ABS, FL, XAS/XES, NRVS
   Peter Pinski           : DLPNO-MP2
   Christoph Reimann      : Effective Core Potentials
   Marius Retegan         : Local ZFS, SOC
   Christoph Riplinger    : Optimizer, TS searches, QM/MM, DLPNO-CCSD(T), (RO)-DLPNO pert. Triples
   Tobias Risthaus        : Range-separated hybrids, TD-DFT gradient, RPA, STAB
   Michael Roemelt        : Restricted open shell CIS
   Masaaki Saitow         : Open-shell DLPNO
   Barbara Sandhoefer     : DKH picture change effects
   Kantharuban Sivalingam : CASSCF convergence, NEVPT2, FIC-MRCI
   Georgi Stoychev        : AutoAux
   Boris Wezisla          : Elementary symmetry handling
   Frank Wennmohs         : Technical directorship


 We gratefully acknowledge several colleagues who have allowed us to
 interface, adapt or use parts of their codes:
   Stefan Grimme, W. Hujo, H. Kruse,             : VdW corrections, initial TS optimization,
                  C. Bannwarth                     DFT functionals, gCP, sTDA/sTD-DF
   Ed Valeev                                     : LibInt (2-el integral package), F12 methods
   Garnet Chan, S. Sharma, J. Yang, R. Olivares  : DMRG
   Ulf Ekstrom                                   : XCFun DFT Library
   Mihaly Kallay                                 : mrcc  (arbitrary order and MRCC methods)
   Jiri Pittner, Ondrej Demel                    : Mk-CCSD
   Frank Weinhold                                : gennbo (NPA and NBO analysis)
   Christopher J. Cramer and Donald G. Truhlar   : smd solvation model


 Your calculation uses the libint2 library for the computation of 2-el integrals
 For citations please refer to: http://libint.valeyev.net

 This ORCA versions uses:
   CBLAS   interface :  Fast vector & matrix operations
   LAPACKE interface :  Fast linear algebra routines
   SCALAPACK package :  Parallel linear algebra routines


Your calculation utilizes the atom-pairwise dispersion correction
with the zero-damping scheme (D30)
Cite in your paper:
S.Grimme, J.Antony, S.Ehrlich and H.Krieg, J.Chem.Phys., 132, (2010), 154104 
   

XCFun DFT library Copyright 2009-2010 Ulf Ekstrom and contributors.
See http://admol.org/xcfun for more information. This is free soft-
ware; see the source code for copying conditions. There is ABSOLUTELY
NO WARRANTY; not even for MERCHANTABILITY or FITNESS FOR A PARTICULAR
PURPOSE. For details see the documentation. Scientific users of this 
library should cite U. Ekstrom, L. Visscher, R. Bast, A. J. Thorvald-
sen and K. Ruud; J.Chem.Theor.Comp. 2010, DOI: 10.1021/ct100117s
XCFun Version 0.99 
Your calculation utilizes the basis: def2-TZVP
   F. Weigend and R. Ahlrichs, Phys. Chem. Chem. Phys. 7, 3297 (2005).

Your calculation utilizes the auxiliary basis: def2/J
   F. Weigend, Phys. Chem. Chem. Phys. 8, 1057 (2006).

================================================================================
                                        WARNINGS
                       Please study these warnings very carefully!
================================================================================

Warning: TCutStore was < 0. Adjusted to Thresh (uncritical)
INFO   : Checking CIS options ...

WARNING: CIS/ROCIS methods need fully converged wavefunctions
  ===> : Setting SCFConvForced true
         You can overwrite this default with %scf ConvForced false 


INFO   : the flag for use of LIBINT has been found!

Your calculation utilizes the atom-pairwise dispersion correction
with the zero-damping scheme (D30)
Cite in your paper:
S.Grimme, J.Antony, S.Ehrlich and H.Krieg, J.Chem.Phys., 132, (2010), 154104 
   

XCFun DFT library Copyright 2009-2010 Ulf Ekstrom and contributors.
See http://admol.org/xcfun for more information. This is free soft-
ware; see the source code for copying conditions. There is ABSOLUTELY
NO WARRANTY; not even for MERCHANTABILITY or FITNESS FOR A PARTICULAR
PURPOSE. For details see the documentation. Scientific users of this 
library should cite U. Ekstrom, L. Visscher, R. Bast, A. J. Thorvald-
sen and K. Ruud; J.Chem.Theor.Comp. 2010, DOI: 10.1021/ct100117s
XCFun Version 0.99 
Your calculation utilizes the basis: def2-TZVP
   F. Weigend and R. Ahlrichs, Phys. Chem. Chem. Phys. 7, 3297 (2005).

Your calculation utilizes the auxiliary basis: def2/J
   F. Weigend, Phys. Chem. Chem. Phys. 8, 1057 (2006).

================================================================================
                                        WARNINGS
                       Please study these warnings very carefully!
================================================================================

INFO   : Checking CIS options ...

INFO   : the flag for use of LIBINT has been found!

================================================================================
                                       INPUT FILE
================================================================================
NAME = total.inp
|  1> # 
|  2> !wB97X-D3 def2-TZVP def2/J RIJCOSX Grid5 FinalGrid6 TightSCF
|  3> %pal 
|  4>  nprocs 24
|  5> end
|  6> %tddft
|  7>   Mode sTDDFT
|  8>   nroots 2
|  9>   Ethresh 10.0
| 10>   maxcore 5000
| 11>   triplets true
| 12> end
| 13> * xyz 0 1 
| 14> C 7.28219518 0.43967471 -3.07260901
| 15> C 6.43696426 0.25650140 -1.98128554
| 16> C 6.96259910 -0.27628165 -0.78852940
| 17> C 8.34116445 -0.62907128 -0.75584946
| 18> C 9.19625067 -0.44008337 -1.85233521
| 19> C 8.64583807 0.10318141 -3.01013047
| 20> C 6.41505131 -0.62943766 0.51253877
| 21> C 7.49259240 -1.20227701 1.25112645
| 22> N 8.63952230 -1.17424695 0.48065246
| 23> C 7.34388237 -1.71792925 2.54729202
| 24> C 6.07251222 -1.66945226 3.11434132
| 25> C 4.99533786 -1.10646233 2.41749484
| 26> C 5.13587869 -0.56175553 1.12724935
| 27> H 4.02172883 -1.06369037 2.89823645
| 28> H 9.54417222 -1.53028734 0.76400177
| 29> H 5.91154362 -2.06488432 4.11308004
| 30> H 5.38779985 0.52035137 -2.06455524
| 31> H 10.24644723 -0.71423171 -1.79977585
| 32> H 9.27674450 0.26336061 -3.88027657
| 33> H 6.88065022 0.85163510 -3.99419110
| 34> C -1.67376220 1.02710298 -0.37405523
| 35> N -1.22990086 1.97123238 -1.22084773
| 36> O 0.12788692 1.92978374 -1.17579423
| 37> C 0.53485311 0.98010181 -0.31924773
| 38> C -0.56855623 0.35954510 0.23246115
| 39> C 1.96424404 0.77568336 -0.12831633
| 40> N 2.88310028 1.50611042 -0.77715494
| 41> O 4.09668905 1.05184115 -0.36818092
| 42> C 3.95305258 0.05388244 0.51627879
| 43> C 2.60360367 -0.16879508 0.72503786
| 44> H 2.14232833 -0.90531028 1.36661410
| 45> H -0.58641968 -0.44375939 0.95524804
| 46> C -4.15254803 1.44603298 -0.76579278
| 47> C -5.41727473 0.94477509 -0.34632162
| 48> C -5.33513625 -0.08757857 0.58709977
| 49> S -3.65410224 -0.46079128 0.94528299
| 50> C -3.09212437 0.78718203 -0.16487204
| 51> C -6.54264336 -0.61003607 1.15900210
| 52> C -7.76663515 -0.18023209 0.66852397
| 53> C -7.85238119 0.72337283 -0.55879245
| 54> O -6.59194873 1.47283929 -0.77449735
| 55> C -8.86867114 -0.75601752 1.37328609
| 56> C -8.48465062 -1.59782251 2.38870134
| 57> S -6.73874431 -1.71056106 2.50638012
| 58> C -8.94669122 1.79341415 -0.41205860
| 59> H -4.01944525 2.25150918 -1.47866218
| 60> H -9.90672081 -0.55215127 1.13325845
| 61> H -8.94968304 2.45491420 -1.27484594
| 62> H -9.92761836 1.33109568 -0.33252637
| 63> H -8.77939616 2.39430878 0.47817490
| 64> C -8.08398086 -0.12665225 -1.83251153
| 65> H -7.27538374 -0.84223948 -1.96100162
| 66> H -8.12452677 0.50648503 -2.71575635
| 67> H -9.01858487 -0.67768784 -1.75876300
| 68> H 8.18639410 -2.14681873 3.08231882
| 69> H -9.13369724 -2.14917276 3.05575484
| 70> *
| 71> $new_job
| 72> # 
| 73> !wB97X-D3 def2-TZVP def2/J RIJCOSX Grid5 FinalGrid6 TightSCF
| 74> %pal 
| 75>  nprocs 24
| 76> end
| 77> %elprop
| 78>    dipole     true
| 79>    quadrupole true
| 80> end
| 81> %tddft
| 82>   Mode sTDDFT
| 83>   nroots 2
| 84>   Ethresh 10.0
| 85>   maxcore 5000
| 86> end
| 87> * xyz 0 1 
| 88> C 7.28219518 0.43967471 -3.07260901
| 89> C 6.43696426 0.25650140 -1.98128554
| 90> C 6.96259910 -0.27628165 -0.78852940
| 91> C 8.34116445 -0.62907128 -0.75584946
| 92> C 9.19625067 -0.44008337 -1.85233521
| 93> C 8.64583807 0.10318141 -3.01013047
| 94> C 6.41505131 -0.62943766 0.51253877
| 95> C 7.49259240 -1.20227701 1.25112645
| 96> N 8.63952230 -1.17424695 0.48065246
| 97> C 7.34388237 -1.71792925 2.54729202
| 98> C 6.07251222 -1.66945226 3.11434132
| 99> C 4.99533786 -1.10646233 2.41749484
|100> C 5.13587869 -0.56175553 1.12724935
|101> H 4.02172883 -1.06369037 2.89823645
|102> H 9.54417222 -1.53028734 0.76400177
|103> H 5.91154362 -2.06488432 4.11308004
|104> H 5.38779985 0.52035137 -2.06455524
|105> H 10.24644723 -0.71423171 -1.79977585
|106> H 9.27674450 0.26336061 -3.88027657
|107> H 6.88065022 0.85163510 -3.99419110
|108> C -1.67376220 1.02710298 -0.37405523
|109> N -1.22990086 1.97123238 -1.22084773
|110> O 0.12788692 1.92978374 -1.17579423
|111> C 0.53485311 0.98010181 -0.31924773
|112> C -0.56855623 0.35954510 0.23246115
|113> C 1.96424404 0.77568336 -0.12831633
|114> N 2.88310028 1.50611042 -0.77715494
|115> O 4.09668905 1.05184115 -0.36818092
|116> C 3.95305258 0.05388244 0.51627879
|117> C 2.60360367 -0.16879508 0.72503786
|118> H 2.14232833 -0.90531028 1.36661410
|119> H -0.58641968 -0.44375939 0.95524804
|120> C -4.15254803 1.44603298 -0.76579278
|121> C -5.41727473 0.94477509 -0.34632162
|122> C -5.33513625 -0.08757857 0.58709977
|123> S -3.65410224 -0.46079128 0.94528299
|124> C -3.09212437 0.78718203 -0.16487204
|125> C -6.54264336 -0.61003607 1.15900210
|126> C -7.76663515 -0.18023209 0.66852397
|127> C -7.85238119 0.72337283 -0.55879245
|128> O -6.59194873 1.47283929 -0.77449735
|129> C -8.86867114 -0.75601752 1.37328609
|130> C -8.48465062 -1.59782251 2.38870134
|131> S -6.73874431 -1.71056106 2.50638012
|132> C -8.94669122 1.79341415 -0.41205860
|133> H -4.01944525 2.25150918 -1.47866218
|134> H -9.90672081 -0.55215127 1.13325845
|135> H -8.94968304 2.45491420 -1.27484594
|136> H -9.92761836 1.33109568 -0.33252637
|137> H -8.77939616 2.39430878 0.47817490
|138> C -8.08398086 -0.12665225 -1.83251153
|139> H -7.27538374 -0.84223948 -1.96100162
|140> H -8.12452677 0.50648503 -2.71575635
|141> H -9.01858487 -0.67768784 -1.75876300
|142> H 8.18639410 -2.14681873 3.08231882
|143> H -9.13369724 -2.14917276 3.05575484
|144> *
|145> 
|146>                          ****END OF INPUT****
================================================================================


                 $$$$$$$$$$$$$$$$$$$$$$$$$$$$$$$$$$$$$$$$$$$$$$ 
                 $ THERE ARE  2 JOBS TO BE PROCESSED THIS RUN $
                 $$$$$$$$$$$$$$$$$$$$$$$$$$$$$$$$$$$$$$$$$$$$$$ 




                 $$$$$$$$$$$$$$$$  JOB NUMBER  1 $$$$$$$$$$$$$$


                       ****************************
                       * Single Point Calculation *
                       ****************************

---------------------------------
CARTESIAN COORDINATES (ANGSTROEM)
---------------------------------
  C      7.282195    0.439675   -3.072609
  C      6.436964    0.256501   -1.981286
  C      6.962599   -0.276282   -0.788529
  C      8.341164   -0.629071   -0.755849
  C      9.196251   -0.440083   -1.852335
  C      8.645838    0.103181   -3.010130
  C      6.415051   -0.629438    0.512539
  C      7.492592   -1.202277    1.251126
  N      8.639522   -1.174247    0.480652
  C      7.343882   -1.717929    2.547292
  C      6.072512   -1.669452    3.114341
  C      4.995338   -1.106462    2.417495
  C      5.135879   -0.561756    1.127249
  H      4.021729   -1.063690    2.898236
  H      9.544172   -1.530287    0.764002
  H      5.911544   -2.064884    4.113080
  H      5.387800    0.520351   -2.064555
  H     10.246447   -0.714232   -1.799776
  H      9.276744    0.263361   -3.880277
  H      6.880650    0.851635   -3.994191
  C     -1.673762    1.027103   -0.374055
  N     -1.229901    1.971232   -1.220848
  O      0.127887    1.929784   -1.175794
  C      0.534853    0.980102   -0.319248
  C     -0.568556    0.359545    0.232461
  C      1.964244    0.775683   -0.128316
  N      2.883100    1.506110   -0.777155
  O      4.096689    1.051841   -0.368181
  C      3.953053    0.053882    0.516279
  C      2.603604   -0.168795    0.725038
  H      2.142328   -0.905310    1.366614
  H     -0.586420   -0.443759    0.955248
  C     -4.152548    1.446033   -0.765793
  C     -5.417275    0.944775   -0.346322
  C     -5.335136   -0.087579    0.587100
  S     -3.654102   -0.460791    0.945283
  C     -3.092124    0.787182   -0.164872
  C     -6.542643   -0.610036    1.159002
  C     -7.766635   -0.180232    0.668524
  C     -7.852381    0.723373   -0.558792
  O     -6.591949    1.472839   -0.774497
  C     -8.868671   -0.756018    1.373286
  C     -8.484651   -1.597823    2.388701
  S     -6.738744   -1.710561    2.506380
  C     -8.946691    1.793414   -0.412059
  H     -4.019445    2.251509   -1.478662
  H     -9.906721   -0.552151    1.133258
  H     -8.949683    2.454914   -1.274846
  H     -9.927618    1.331096   -0.332526
  H     -8.779396    2.394309    0.478175
  C     -8.083981   -0.126652   -1.832512
  H     -7.275384   -0.842239   -1.961002
  H     -8.124527    0.506485   -2.715756
  H     -9.018585   -0.677688   -1.758763
  H      8.186394   -2.146819    3.082319
  H     -9.133697   -2.149173    3.055755

----------------------------
CARTESIAN COORDINATES (A.U.)
----------------------------
  NO LB      ZA    FRAG     MASS         X           Y           Z
   0 C     6.0000    0    12.011   13.761355    0.830865   -5.806390
   1 C     6.0000    0    12.011   12.164100    0.484717   -3.744087
   2 C     6.0000    0    12.011   13.157405   -0.522097   -1.490105
   3 C     6.0000    0    12.011   15.762516   -1.188772   -1.428348
   4 C     6.0000    0    12.011   17.378395   -0.831637   -3.500406
   5 C     6.0000    0    12.011   16.338266    0.194985   -5.688322
   6 C     6.0000    0    12.011   12.122690   -1.189465    0.968558
   7 C     6.0000    0    12.011   14.158948   -2.271974    2.364286
   8 N     7.0000    0    14.007   16.326331   -2.219005    0.908302
   9 C     6.0000    0    12.011   13.877926   -3.246416    4.813684
  10 C     6.0000    0    12.011   11.475385   -3.154808    5.885252
  11 C     6.0000    0    12.011    9.439821   -2.090911    4.568403
  12 C     6.0000    0    12.011    9.705404   -1.061564    2.130193
  13 H     1.0000    0     1.008    7.599966   -2.010083    5.476873
  14 H     1.0000    0     1.008   18.035872   -2.891824    1.443754
  15 H     1.0000    0     1.008   11.171198   -3.902066    7.772595
  16 H     1.0000    0     1.008   10.181466    0.983322   -3.901444
  17 H     1.0000    0     1.008   19.362979   -1.349702   -3.401083
  18 H     1.0000    0     1.008   17.530507    0.497679   -7.332660
  19 H     1.0000    0     1.008   13.002545    1.609357   -7.547927
  20 C     6.0000    0    12.011   -3.162952    1.940943   -0.706862
  21 N     7.0000    0    14.007   -2.324176    3.725089   -2.307068
  22 O     8.0000    0    15.999    0.241671    3.646763   -2.221929
  23 C     6.0000    0    12.011    1.010726    1.852124   -0.603291
  24 C     6.0000    0    12.011   -1.074416    0.679442    0.439288
  25 C     6.0000    0    12.011    3.711883    1.465829   -0.242483
  26 N     7.0000    0    14.007    5.448270    2.846136   -1.468610
  27 O     8.0000    0    15.999    7.741620    1.987692   -0.695761
  28 C     6.0000    0    12.011    7.470187    0.101823    0.975626
  29 C     6.0000    0    12.011    4.920098   -0.318976    1.370123
  30 H     1.0000    0     1.008    4.048414   -1.710788    2.582526
  31 H     1.0000    0     1.008   -1.108173   -0.838584    1.805157
  32 C     6.0000    0    12.011   -7.847179    2.732606   -1.447139
  33 C     6.0000    0    12.011  -10.237166    1.785366   -0.654453
  34 C     6.0000    0    12.011  -10.081946   -0.165500    1.109458
  35 S    16.0000    0    32.060   -6.905252   -0.870769    1.786326
  36 C     6.0000    0    12.011   -5.843268    1.487558   -0.311563
  37 C     6.0000    0    12.011  -12.363804   -1.152801    2.190197
  38 C     6.0000    0    12.011  -14.676813   -0.340589    1.263327
  39 C     6.0000    0    12.011  -14.838850    1.366977   -1.055965
  40 O     8.0000    0    15.999  -12.456978    2.783263   -1.463588
  41 C     6.0000    0    12.011  -16.759360   -1.428666    2.595135
  42 C     6.0000    0    12.011  -16.033666   -3.019447    4.513991
  43 S    16.0000    0    32.060  -12.734381   -3.232492    4.736372
  44 C     6.0000    0    12.011  -16.906796    3.389062   -0.778678
  45 H     1.0000    0     1.008   -7.595651    4.254736   -2.794267
  46 H     1.0000    0     1.008  -18.720989   -1.043415    2.141548
  47 H     1.0000    0     1.008  -16.912450    4.639116   -2.409110
  48 H     1.0000    0     1.008  -18.760480    2.515406   -0.628384
  49 H     1.0000    0     1.008  -16.590654    4.524588    0.903620
  50 C     6.0000    0    12.011  -15.276510   -0.239338   -3.462945
  51 H     1.0000    0     1.008  -13.748483   -1.591602   -3.705756
  52 H     1.0000    0     1.008  -15.353131    0.957118   -5.132036
  53 H     1.0000    0     1.008  -17.042656   -1.280644   -3.323580
  54 H     1.0000    0     1.008   15.470043   -4.056899    5.824738
  55 H     1.0000    0     1.008  -17.260186   -4.061348    5.774540

--------------------------------
INTERNAL COORDINATES (ANGSTROEM)
--------------------------------
 C      0   0   0     0.000000000000     0.00000000     0.00000000
 C      1   0   0     1.392463531226     0.00000000     0.00000000
 C      2   1   0     1.408125339910   119.14693314     0.00000000
 C      3   2   1     1.423366054722   118.34406840   358.93652940
 C      4   3   2     1.403271133357   122.60552916     1.38546641
 C      5   4   3     1.392329169236   117.47866908   359.33677234
 C      3   2   1     1.455096605975   135.13342642   181.50545096
 C      7   3   2     1.426447153804   106.03249170   176.52083405
 N      8   7   3     1.381978309904   109.27522594     1.57266367
 C      8   7   3     1.402874581170   123.08829701   182.53502188
 C     10   8   7     1.392938256170   117.39251904     0.64574556
 C     11  10   8     1.401020085442   120.88082804   359.01769306
 C     12  11  10     1.407547742469   122.32187241   359.74785594
 H     12  11  10     1.086672204230   118.98819194   181.41481611
 H      9   8   7     1.012641628882   125.32984352   180.81734321
 H     11  10   8     1.086165933497   119.79618808   179.52654772
 H      2   1   3     1.085032998953   119.65672997   180.31801509
 H      5   4   3     1.086661222868   121.14019417   179.73449973
 H      6   5   4     1.086671309492   119.59459088   180.05972589
 H      1   2   3     1.086399220563   119.36440098   180.07592788
 C     14  12  11     6.893324868611   122.83333429   186.34854642
 N     21  14  12     1.343670625990   103.84803872   326.06693869
 O     22  21  14     1.359167194696   106.71922427     8.68128748
 C     23  22  21     1.342083885096   110.22219328     0.00000000
 C     24  23  22     1.380936454076   109.30957885     0.00000000
 C     24  23  22     1.456502706133   118.72244490   179.96266257
 N     26  24  23     1.341197980014   122.17423826     0.14753790
 O     27  26  24     1.358829651344   106.51109693   180.14567219
 C     28  27  26     1.341201700339   110.58416322     0.18454388
 C     29  28  27     1.383538213394   108.88791313   359.41165289
 H     30  29  28     1.080208151634   128.01440059   179.28156203
 H     25  24  23     1.080758111168   127.90873860   180.01875209
 C     21  14  12     2.544275897773   158.12456393   169.77955934
 C     33  21  14     1.423639403800   139.65568362   335.76363589
 C     34  33  21     1.394193781553   113.93155245     1.29931114
 S     35  34  33     1.758822983922   110.47364533   359.43248282
 C     33  21  14     1.385528292301    27.03461093   336.99278088
 C     35  34  33     1.434610586559   119.14172174   175.52042539
 C     38  35  34     1.386887219358   119.27432832     6.89140369
 C     39  38  35     1.526486105284   121.15574378     6.41295722
 O     34  33  21     1.357219680582   122.61160114   178.37423526
 C     39  38  35     1.429231202585   112.41209051   182.09676191
 C     42  39  38     1.373745074933   113.31611141     0.57692480
 S     38  35  34     1.750725096920   129.05088446   190.31202748
 C     40  39  38     1.537541443670   112.03748347   219.06061897
 H     33  21  14     1.083831647566    95.96904626   156.43487394
 H     42  39  38     1.084768101135   123.57572720   180.62541694
 H     45  40  39     1.087195134831   110.46695787   176.93583111
 H     45  40  39     1.087327824210   110.68041050   296.89823425
 H     45  40  39     1.087003991706   110.69155167    56.98579210
 C     40  39  38     1.548722485964   110.16662904    95.31267071
 H     51  40  39     1.087384057930   110.31441771   301.19854735
 H     51  40  39     1.087487102544   110.73221511   181.25499636
 H     51  40  39     1.087457457849   110.54011884    60.92495221
 H     10   8   7     1.086289960352   121.19626533   180.05218076
 H     43  42  39     1.081761981663   126.89782410   180.20065884

---------------------------
INTERNAL COORDINATES (A.U.)
---------------------------
 C      0   0   0     0.000000000000     0.00000000     0.00000000
 C      1   0   0     2.631374725489     0.00000000     0.00000000
 C      2   1   0     2.660971254665   119.14693314     0.00000000
 C      3   2   1     2.689772031744   118.34406840   358.93652940
 C      4   3   2     2.651798133682   122.60552916     1.38546641
 C      5   4   3     2.631120818126   117.47866908   359.33677234
 C      3   2   1     2.749734083691   135.13342642   181.50545096
 C      7   3   2     2.695594465200   106.03249170   176.52083405
 N      8   7   3     2.611560528737   109.27522594     1.57266367
 C      8   7   3     2.651048758651   123.08829701   182.53502188
 C     10   8   7     2.632271825622   117.39251904     0.64574556
 C     11  10   8     2.647544269608   120.88082804   359.01769306
 C     12  11  10     2.659879753685   122.32187241   359.74785594
 H     12  11  10     2.053512863338   118.98819194   181.41481611
 H      9   8   7     1.913615350395   125.32984352   180.81734321
 H     11  10   8     2.052556150304   119.79618808   179.52654772
 H      2   1   3     2.050415214289   119.65672997   180.31801509
 H      5   4   3     2.053492111572   121.14019417   179.73449973
 H      6   5   4     2.053511172530   119.59459088   180.05972589
 H      1   2   3     2.052996998969   119.36440098   180.07592788
 C     14  12  11    13.026496153824   122.83333429   186.34854642
 N     21  14  12     2.539169497315   103.84803872   326.06693869
 O     22  21  14     2.568453768185   106.71922427     8.68128748
 C     23  22  21     2.536170991580   110.22219328     0.00000000
 C     24  23  22     2.609591706552   109.30957885     0.00000000
 C     24  23  22     2.752391227906   118.72244490   179.96266257
 N     26  24  23     2.534496873595   122.17423826     0.14753790
 O     27  26  24     2.567815903692   106.51109693   180.14567219
 C     28  27  26     2.534503903990   110.58416322     0.18454388
 C     29  28  27     2.614508319129   108.88791313   359.41165289
 H     30  29  28     2.041297574217   128.01440059   179.28156203
 H     25  24  23     2.042336847122   127.90873860   180.01875209
 C     21  14  12     4.807984655928   158.12456393   169.77955934
 C     33  21  14     2.690288586641   139.65568362   335.76363589
 C     34  33  21     2.634644424752   113.93155245     1.29931114
 S     35  34  33     3.323693757658   110.47364533   359.43248282
 C     33  21  14     2.618269023248    27.03461093   336.99278088
 C     35  34  33     2.711021117420   119.14172174   175.52042539
 C     38  35  34     2.620837023223   119.27432832     6.89140369
 C     39  38  35     2.884640686223   121.15574378     6.41295722
 O     34  33  21     2.564773499868   122.61160114   178.37423526
 C     39  38  35     2.700855554941   112.41209051   182.09676191
 C     42  39  38     2.596001969446   113.31611141     0.57692480
 S     38  35  34     3.308390968961   129.05088446   190.31202748
 C     40  39  38     2.905532248090   112.03748347   219.06061897
 H     33  21  14     2.048144989177    95.96904626   156.43487394
 H     42  39  38     2.049914629959   123.57572720   180.62541694
 H     45  40  39     2.054501058963   110.46695787   176.93583111
 H     45  40  39     2.054751805549   110.68041050   296.89823425
 H     45  40  39     2.054139850804   110.69155167    56.98579210
 C     40  39  38     2.926661355917   110.16662904    95.31267071
 H     51  40  39     2.054858071879   110.31441771   301.19854735
 H     51  40  39     2.055052797980   110.73221511   181.25499636
 H     51  40  39     2.054996777625   110.54011884    60.92495221
 H     10   8   7     2.052790527093   121.19626533   180.05218076
 H     43  42  39     2.044233887430   126.89782410   180.20065884

---------------------
BASIS SET INFORMATION
---------------------
There are 5 groups of distinct atoms

 Group   1 Type C   : 11s6p2d1f contracted to 5s3p2d1f pattern {62111/411/11/1}
 Group   2 Type N   : 11s6p2d1f contracted to 5s3p2d1f pattern {62111/411/11/1}
 Group   3 Type H   : 5s1p contracted to 3s1p pattern {311/1}
 Group   4 Type O   : 11s6p2d1f contracted to 5s3p2d1f pattern {62111/411/11/1}
 Group   5 Type S   : 14s9p3d1f contracted to 5s5p2d1f pattern {73211/51111/21/1}

Atom   0C    basis set group =>   1
Atom   1C    basis set group =>   1
Atom   2C    basis set group =>   1
Atom   3C    basis set group =>   1
Atom   4C    basis set group =>   1
Atom   5C    basis set group =>   1
Atom   6C    basis set group =>   1
Atom   7C    basis set group =>   1
Atom   8N    basis set group =>   2
Atom   9C    basis set group =>   1
Atom  10C    basis set group =>   1
Atom  11C    basis set group =>   1
Atom  12C    basis set group =>   1
Atom  13H    basis set group =>   3
Atom  14H    basis set group =>   3
Atom  15H    basis set group =>   3
Atom  16H    basis set group =>   3
Atom  17H    basis set group =>   3
Atom  18H    basis set group =>   3
Atom  19H    basis set group =>   3
Atom  20C    basis set group =>   1
Atom  21N    basis set group =>   2
Atom  22O    basis set group =>   4
Atom  23C    basis set group =>   1
Atom  24C    basis set group =>   1
Atom  25C    basis set group =>   1
Atom  26N    basis set group =>   2
Atom  27O    basis set group =>   4
Atom  28C    basis set group =>   1
Atom  29C    basis set group =>   1
Atom  30H    basis set group =>   3
Atom  31H    basis set group =>   3
Atom  32C    basis set group =>   1
Atom  33C    basis set group =>   1
Atom  34C    basis set group =>   1
Atom  35S    basis set group =>   5
Atom  36C    basis set group =>   1
Atom  37C    basis set group =>   1
Atom  38C    basis set group =>   1
Atom  39C    basis set group =>   1
Atom  40O    basis set group =>   4
Atom  41C    basis set group =>   1
Atom  42C    basis set group =>   1
Atom  43S    basis set group =>   5
Atom  44C    basis set group =>   1
Atom  45H    basis set group =>   3
Atom  46H    basis set group =>   3
Atom  47H    basis set group =>   3
Atom  48H    basis set group =>   3
Atom  49H    basis set group =>   3
Atom  50C    basis set group =>   1
Atom  51H    basis set group =>   3
Atom  52H    basis set group =>   3
Atom  53H    basis set group =>   3
Atom  54H    basis set group =>   3
Atom  55H    basis set group =>   3
-------------------------------
AUXILIARY BASIS SET INFORMATION
-------------------------------
There are 5 groups of distinct atoms

 Group   1 Type C   : 12s5p4d2f1g contracted to 6s4p3d1f1g pattern {711111/2111/211/2/1}
 Group   2 Type N   : 12s5p4d2f1g contracted to 6s4p3d1f1g pattern {711111/2111/211/2/1}
 Group   3 Type H   : 5s2p1d contracted to 3s1p1d pattern {311/2/1}
 Group   4 Type O   : 12s5p4d2f1g contracted to 6s4p3d1f1g pattern {711111/2111/211/2/1}
 Group   5 Type S   : 14s5p5d2f1g contracted to 8s4p3d1f1g pattern {71111111/2111/311/2/1}

Atom   0C    basis set group =>   1
Atom   1C    basis set group =>   1
Atom   2C    basis set group =>   1
Atom   3C    basis set group =>   1
Atom   4C    basis set group =>   1
Atom   5C    basis set group =>   1
Atom   6C    basis set group =>   1
Atom   7C    basis set group =>   1
Atom   8N    basis set group =>   2
Atom   9C    basis set group =>   1
Atom  10C    basis set group =>   1
Atom  11C    basis set group =>   1
Atom  12C    basis set group =>   1
Atom  13H    basis set group =>   3
Atom  14H    basis set group =>   3
Atom  15H    basis set group =>   3
Atom  16H    basis set group =>   3
Atom  17H    basis set group =>   3
Atom  18H    basis set group =>   3
Atom  19H    basis set group =>   3
Atom  20C    basis set group =>   1
Atom  21N    basis set group =>   2
Atom  22O    basis set group =>   4
Atom  23C    basis set group =>   1
Atom  24C    basis set group =>   1
Atom  25C    basis set group =>   1
Atom  26N    basis set group =>   2
Atom  27O    basis set group =>   4
Atom  28C    basis set group =>   1
Atom  29C    basis set group =>   1
Atom  30H    basis set group =>   3
Atom  31H    basis set group =>   3
Atom  32C    basis set group =>   1
Atom  33C    basis set group =>   1
Atom  34C    basis set group =>   1
Atom  35S    basis set group =>   5
Atom  36C    basis set group =>   1
Atom  37C    basis set group =>   1
Atom  38C    basis set group =>   1
Atom  39C    basis set group =>   1
Atom  40O    basis set group =>   4
Atom  41C    basis set group =>   1
Atom  42C    basis set group =>   1
Atom  43S    basis set group =>   5
Atom  44C    basis set group =>   1
Atom  45H    basis set group =>   3
Atom  46H    basis set group =>   3
Atom  47H    basis set group =>   3
Atom  48H    basis set group =>   3
Atom  49H    basis set group =>   3
Atom  50C    basis set group =>   1
Atom  51H    basis set group =>   3
Atom  52H    basis set group =>   3
Atom  53H    basis set group =>   3
Atom  54H    basis set group =>   3
Atom  55H    basis set group =>   3
-------------------------
ECP PARAMETER INFORMATION
-------------------------



--------------------------------------------------------------------------
[[7038,1],1]: A high-performance Open MPI point-to-point messaging module
was unable to find any relevant network interfaces:

Module: OpenFabrics (openib)
  Host: cx1-136-13-1

Another transport will be used instead, although this may result in
lower performance.
--------------------------------------------------------------------------


           ************************************************************
           *        Program running with 24 parallel MPI-processes    *
           *              working on a common directory               *
           ************************************************************
------------------------------------------------------------------------------
                           ORCA GTO INTEGRAL CALCULATION
                           -- RI-GTO INTEGRALS CHOSEN --
------------------------------------------------------------------------------

                         BASIS SET STATISTICS AND STARTUP INFO

Gaussian basis set:
 # of primitive gaussian shells          ...  868
 # of primitive gaussian functions       ... 1888
 # of contracted shells                  ...  487
 # of contracted basis functions         ... 1273
 Highest angular momentum                ...    3
 Maximum contraction depth               ...    7
Auxiliary gaussian basis set:
 # of primitive gaussian shells          ... 1046
 # of primitive gaussian functions       ... 2908
 # of contracted shells                  ...  654
 # of contracted aux-basis functions     ... 2026
 Highest angular momentum                ...    4
 Maximum contraction depth               ...    7
Ratio of auxiliary to basis functions    ...  1.59
Integral package used                  ... LIBINT
 One Electron integrals                  
   ECP integrals                         ... done
 Ordering auxiliary basis shells         ... done
 Integral threshhold             Thresh  ...  2.500e-11
 Primitive cut-off               TCut    ...  2.500e-12
 Pre-screening matrix                    ... done
 Shell pair data                         ... 
 Ordering of the shell pairs             ... done (   0.021 sec) 53237 of 118828 pairs
 Determination of significant pairs      ... done (   0.000 sec)
 Creation of shell pair data             ... done (   0.015 sec)
 Storage of shell pair data              ... done (   0.133 sec)
 Shell pair data done in (   0.170 sec)
 Computing two index integrals           ... done
 Cholesky decomposition of the V-matrix  ... done


Timings:
 Total evaluation time                   ...   6.981 sec (  0.116 min)
 One electron matrix time                ...   2.108 sec (  0.035 min) = 30.2%
 Schwartz matrix evaluation time         ...   2.908 sec (  0.048 min) = 41.7%
 Two index repulsion integral time       ...   1.012 sec (  0.017 min) = 14.5%
 Cholesky decomposition of V             ...   0.734 sec (  0.012 min) = 10.5%
 Three index repulsion integral time     ...   0.000 sec (  0.000 min) =  0.0%

--------------------------------------------------------------------------
[[7116,1],2]: A high-performance Open MPI point-to-point messaging module
was unable to find any relevant network interfaces:

Module: OpenFabrics (openib)
  Host: cx1-136-13-1

Another transport will be used instead, although this may result in
lower performance.
--------------------------------------------------------------------------


           ************************************************************
           *        Program running with 24 parallel MPI-processes    *
           *              working on a common directory               *
           ************************************************************
-------------------------------------------------------------------------------
                                 ORCA SCF
-------------------------------------------------------------------------------

------------
SCF SETTINGS
------------
Hamiltonian:
 Density Functional     Method          .... DFT(GTOs)
 Exchange Functional    Exchange        .... WB97X-D3
 Correlation Functional Correlation     .... WB97X-D3
 Gradients option       PostSCFGGA      .... off
 Hybrid DFT is turned on
   Fraction HF Exchange ScalHFX         ....  0.195728
   Scaling of DF-GGA-X  ScalDFX         ....  0.000000
   Scaling of DF-GGA-C  ScalDFC         ....  1.000000
   Scaling of DF-LDA-C  ScalLDAC        ....  1.000000
   Perturbative correction              ....  0.000000
 Long-range corrected/Screened/Range-Separated Hybrid DFT is turned on
   Amount of maximum screened exact exchange              ....  0.804272
   Range separation parameter mu (erf(mu*r12)/r12)        ....  0.250000
 RI-approximation to the Coulomb term is turned on
   Number of auxiliary basis functions  .... 2026
   RIJ-COSX (HFX calculated with COS-X)).... on


General Settings:
 Integral files         IntName         .... total
 Hartree-Fock type      HFTyp           .... RHF
 Total Charge           Charge          ....    0
 Multiplicity           Mult            ....    1
 Number of Electrons    NEL             ....  270
 Basis Dimension        Dim             .... 1273
 Nuclear Repulsion      ENuc            ....   3749.7313968935 Eh

Convergence Acceleration:
 DIIS                   CNVDIIS         .... on
   Start iteration      DIISMaxIt       ....    12
   Startup error        DIISStart       ....  0.200000
   # of expansion vecs  DIISMaxEq       ....     5
   Bias factor          DIISBfac        ....   1.050
   Max. coefficient     DIISMaxC        ....  10.000
 Newton-Raphson         CNVNR           .... off
 SOSCF                  CNVSOSCF        .... on
   Start iteration      SOSCFMaxIt      ....   150
   Startup grad/error   SOSCFStart      ....  0.003300
 Level Shifting         CNVShift        .... on
   Level shift para.    LevelShift      ....    0.2500
   Turn off err/grad.   ShiftErr        ....    0.0010
 Zerner damping         CNVZerner       .... off
 Static damping         CNVDamp         .... on
   Fraction old density DampFac         ....    0.7000
   Max. Damping (<1)    DampMax         ....    0.9800
   Min. Damping (>=0)   DampMin         ....    0.0000
   Turn off err/grad.   DampErr         ....    0.1000
 Fernandez-Rico         CNVRico         .... off

SCF Procedure:
 Maximum # iterations   MaxIter         ....   125
 SCF integral mode      SCFMode         .... Direct
   Integral package                     .... LIBINT
 Reset frequeny         DirectResetFreq ....    20
 Integral Threshold     Thresh          ....  2.500e-11 Eh
 Primitive CutOff       TCut            ....  2.500e-12 Eh

Convergence Tolerance:
 Convergence Check Mode ConvCheckMode   .... Total+1el-Energy
 Convergence forced     ConvForced      .... 1
 Energy Change          TolE            ....  1.000e-08 Eh
 1-El. energy change                    ....  1.000e-05 Eh
 Orbital Gradient       TolG            ....  1.000e-05
 Orbital Rotation angle TolX            ....  1.000e-05
 DIIS Error             TolErr          ....  5.000e-07


Diagonalization of the overlap matrix:
Smallest eigenvalue                        ... 4.945e-06
Time for diagonalization                   ...    0.544 sec
Threshold for overlap eigenvalues          ... 1.000e-08
Number of eigenvalues below threshold      ... 0
Time for construction of square roots      ...    0.611 sec
Total time needed                          ...    1.166 sec

-------------------
DFT GRID GENERATION
-------------------

General Integration Accuracy     IntAcc      ...  5.010
Radial Grid Type                 RadialGrid  ... Gauss-Chebyshev
Angular Grid (max. acc.)         AngularGrid ... Lebedev-434
Angular grid pruning method      GridPruning ... 3 (G Style)
Weight generation scheme         WeightScheme... Becke
Basis function cutoff            BFCut       ...    1.0000e-11
Integration weight cutoff        WCut        ...    1.0000e-14
Grids for H and He will be reduced by one unit

# of grid points (after initial pruning)     ... 525166 (   0.0 sec)
# of grid points (after weights+screening)   ... 459027 (   2.2 sec)
nearest neighbour list constructed           ...    0.0 sec
Grid point re-assignment to atoms done       ...    0.3 sec
Grid point division into batches done        ...    5.3 sec
Reduced shell lists constructed in    6.4 sec

Total number of grid points                  ...   459027
Total number of batches                      ...     7204
Average number of points per batch           ...       63
Average number of grid points per atom       ...     8197
Average number of shells per batch           ...   137.54 (28.24%)
Average number of basis functions per batch  ...   357.82 (28.11%)
Average number of large shells per batch     ...    95.62 (69.52%)
Average number of large basis fcns per batch ...   248.29 (69.39%)
Maximum spatial batch extension              ...  11.50, 16.84, 17.87 au
Average spatial batch extension              ...   0.06,  0.06,  0.07 au

Time for grid setup =    9.650 sec

------------------------------
INITIAL GUESS: MODEL POTENTIAL
------------------------------
Loading Hartree-Fock densities                     ... done
Calculating cut-offs                               ... done
Setting up the integral package                    ... done
Initializing the effective Hamiltonian             ... done
Starting the Coulomb interaction                   ... done (   0.6 sec)
Reading the grid                                   ... done
Mapping shells                                     ... done
Starting the XC term evaluation                    ... done (   2.8 sec)
  promolecular density results
     # of electrons  =    269.990665967
     EX              =   -247.896048078
     EC              =     -9.328578179
     EX+EC           =   -257.224626257
Transforming the Hamiltonian                       ... done (   0.3 sec)
Diagonalizing the Hamiltonian                      ... done (   0.5 sec)
Back transforming the eigenvectors                 ... done (   0.2 sec)
Now organizing SCF variables                       ... done
                      ------------------
                      INITIAL GUESS DONE (  14.3 sec)
                      ------------------
--------------------
COSX GRID GENERATION
--------------------

General Integration Accuracy     IntAcc      ...  3.340
Radial Grid Type                 RadialGrid  ... Gauss-Chebyshev
Angular Grid (max. acc.)         AngularGrid ... Lebedev-50
Angular grid pruning method      GridPruning ... 3 (G Style)
Weight generation scheme         WeightScheme... Becke
Basis function cutoff            BFCut       ...    1.0000e-11
Integration weight cutoff        WCut        ...    1.0000e-14
Grids for H and He will be reduced by one unit

# of grid points (after initial pruning)     ...  27750 (   0.0 sec)
# of grid points (after weights+screening)   ...  25185 (   0.1 sec)
nearest neighbour list constructed           ...    0.0 sec
Grid point re-assignment to atoms done       ...    0.0 sec
Grid point division into batches done        ...    0.0 sec
Reduced shell lists constructed in    0.1 sec

Total number of grid points                  ...    25185
Total number of batches                      ...      419
Average number of points per batch           ...       60
Average number of grid points per atom       ...      450
Average number of shells per batch           ...   151.58 (31.13%)
Average number of basis functions per batch  ...   398.63 (31.31%)
Average number of large shells per batch     ...   107.74 (71.08%)
Average number of large basis fcns per batch ...   283.84 (71.20%)
Maximum spatial batch extension              ...   6.58, 19.23,  8.59 au
Average spatial batch extension              ...   0.12,  0.28,  0.15 au

Overlap Fitting                  UseSFitting ... on
Constructing numerical overlap ... done (      0.1 sec)
Inverting numerical overlap    ... done (      0.2 sec)
Obtaining analytic overlap     ... done (      0.0 sec)
Final contraction and storage  ... done (      0.7 sec)


General Integration Accuracy     IntAcc      ...  3.670
Radial Grid Type                 RadialGrid  ... Gauss-Chebyshev
Angular Grid (max. acc.)         AngularGrid ... Lebedev-50
Angular grid pruning method      GridPruning ... 3 (G Style)
Weight generation scheme         WeightScheme... Becke
Basis function cutoff            BFCut       ...    1.0000e-11
Integration weight cutoff        WCut        ...    1.0000e-14
Grids for H and He will be reduced by one unit

# of grid points (after initial pruning)     ...  34806 (   0.0 sec)
# of grid points (after weights+screening)   ...  31479 (   0.2 sec)
nearest neighbour list constructed           ...    0.0 sec
Grid point re-assignment to atoms done       ...    0.0 sec
Grid point division into batches done        ...    0.0 sec
Reduced shell lists constructed in    0.1 sec

Total number of grid points                  ...    31479
Total number of batches                      ...      516
Average number of points per batch           ...       61
Average number of grid points per atom       ...      562
Average number of shells per batch           ...   150.48 (30.90%)
Average number of basis functions per batch  ...   396.48 (31.15%)
Average number of large shells per batch     ...   107.13 (71.19%)
Average number of large basis fcns per batch ...   282.70 (71.30%)
Maximum spatial batch extension              ...   9.31, 29.10, 11.45 au
Average spatial batch extension              ...   0.12,  0.22,  0.13 au

Overlap Fitting                  UseSFitting ... on
Constructing numerical overlap ... done (      0.2 sec)
Inverting numerical overlap    ... done (      0.2 sec)
Obtaining analytic overlap     ... done (      0.0 sec)
Final contraction and storage  ... done (      0.7 sec)


General Integration Accuracy     IntAcc      ...  4.010
Radial Grid Type                 RadialGrid  ... Gauss-Chebyshev
Angular Grid (max. acc.)         AngularGrid ... Lebedev-110
Angular grid pruning method      GridPruning ... 3 (G Style)
Weight generation scheme         WeightScheme... Becke
Basis function cutoff            BFCut       ...    1.0000e-11
Integration weight cutoff        WCut        ...    1.0000e-14
Grids for H and He will be reduced by one unit

# of grid points (after initial pruning)     ...  67198 (   0.0 sec)
# of grid points (after weights+screening)   ...  60337 (   0.4 sec)
nearest neighbour list constructed           ...    0.0 sec
Grid point re-assignment to atoms done       ...    0.0 sec
Grid point division into batches done        ...    0.1 sec
Reduced shell lists constructed in    0.3 sec

Total number of grid points                  ...    60337
Total number of batches                      ...      971
Average number of points per batch           ...       62
Average number of grid points per atom       ...     1077
Average number of shells per batch           ...   146.57 (30.10%)
Average number of basis functions per batch  ...   385.43 (30.28%)
Average number of large shells per batch     ...   104.17 (71.07%)
Average number of large basis fcns per batch ...   273.74 (71.02%)
Maximum spatial batch extension              ...   9.76, 17.33, 16.25 au
Average spatial batch extension              ...   0.11,  0.15,  0.13 au

Overlap Fitting                  UseSFitting ... on
Constructing numerical overlap ... done (      0.2 sec)
Inverting numerical overlap    ... done (      0.2 sec)
Obtaining analytic overlap     ... done (      0.0 sec)
Final contraction and storage  ... done (      0.7 sec)

Time for X-Grid setup             =    5.093 sec
--------------
SCF ITERATIONS
--------------
ITER       Energy         Delta-E        Max-DP      RMS-DP      [F,P]     Damp
               ***  Starting incremental Fock matrix formation  ***
  0  -2302.1366885588   0.000000000000 0.06331700  0.00061930  0.1773247 0.7000
  1  -2302.4287612479  -0.292072689133 0.06525238  0.00053286  0.1057904 0.7000
                               ***Turning on DIIS***
  2  -2302.5769915593  -0.148230311407 0.16746938  0.00123409  0.0539823 0.0000
  3  -2302.8165207049  -0.239529145552 0.06026390  0.00034552  0.0492726 0.0000
  4  -2302.8562882772  -0.039767572283 0.01838294  0.00013629  0.0063235 0.0000
  5  -2302.8576316755  -0.001343398303 0.00709886  0.00005716  0.0045112 0.0000
                      *** Initiating the SOSCF procedure ***
                           *** Shutting down DIIS ***
                      *** Re-Reading the Fockian *** 
                      *** Removing any level shift *** 
ITER      Energy       Delta-E        Grad      Rot      Max-DP    RMS-DP
  6  -2302.85798662  -0.0003549462  0.001667  0.001667  0.003927  0.000030
               *** Restarting incremental Fock matrix formation ***
  7  -2302.85812165  -0.0001350245  0.000941  0.002828  0.024553  0.000127
  8  -2302.85818134  -0.0000596901  0.000521  0.003886  0.018946  0.000095
  9  -2302.85819896  -0.0000176277  0.000218  0.000910  0.016929  0.000081
 10  -2302.85820670  -0.0000077370  0.000050  0.000184  0.002350  0.000012
 11  -2302.85820696  -0.0000002559  0.000039  0.000070  0.001220  0.000006
 12  -2302.85820713  -0.0000001710  0.000011  0.000055  0.000253  0.000002
 13  -2302.85820706   0.0000000668  0.000007  0.000013  0.000207  0.000001
                  ***Gradient check signals convergence***
              ***Rediagonalizing the Fockian in SOSCF/NRSCF***

               *****************************************************
               *                     SUCCESS                       *
               *           SCF CONVERGED AFTER  14 CYCLES          *
               *****************************************************

Old exchange energy                            =    -78.215240637 Eh
New exchange energy                            =    -78.215743311 Eh
Exchange energy change after final integration =     -0.000502674 Eh
Total energy after final integration           =  -2302.858709818 Eh
Final COS-X integration done in                =    61.368 sec

----------------
TOTAL SCF ENERGY
----------------

Total Energy       :        -2302.85870982 Eh          -62663.97127 eV

Components:
Nuclear Repulsion  :         3749.73139689 Eh          102035.37869 eV
Electronic Energy  :        -6052.59010671 Eh         -164699.34996 eV
One Electron Energy:       -10604.98640015 Eh         -288576.35089 eV
Two Electron Energy:         4552.39629344 Eh          123877.00093 eV

Virial components:
Potential Energy   :        -4596.38320158 Eh         -125073.94555 eV
Kinetic Energy     :         2293.52449176 Eh           62409.97428 eV
Virial Ratio       :            2.00406981


DFT components:
N(Alpha)           :      134.999970549469 electrons
N(Beta)            :      134.999970549469 electrons
N(Total)           :      269.999941098938 electrons
E(XC)              :     -183.870266214434 Eh       

---------------
SCF CONVERGENCE
---------------

  Last Energy change         ...   -8.3427e-08  Tolerance :   1.0000e-08
  Last MAX-Density change    ...    1.3697e-14  Tolerance :   1.0000e-07
  Last RMS-Density change    ...    6.6482e-17  Tolerance :   5.0000e-09
  Last Orbital Gradient      ...    2.2054e-06  Tolerance :   1.0000e-05
  Last Orbital Rotation      ...    9.6010e-06  Tolerance :   1.0000e-05

             **** THE GBW FILE WAS UPDATED (total.gbw) ****
             **** DENSITY FILE WAS UPDATED (total.scfp.tmp) ****
             **** ENERGY FILE WAS UPDATED (total.en.tmp) ****
----------------
ORBITAL ENERGIES
----------------

  NO   OCC          E(Eh)            E(eV) 
   0   2.0000     -88.991096     -2421.5708 
   1   2.0000     -88.989323     -2421.5226 
   2   2.0000     -19.340517      -526.2822 
   3   2.0000     -19.334879      -526.1288 
   4   2.0000     -19.269585      -524.3521 
   5   2.0000     -14.484201      -394.1352 
   6   2.0000     -14.478506      -393.9802 
   7   2.0000     -14.473310      -393.8388 
   8   2.0000     -10.372310      -282.2449 
   9   2.0000     -10.370953      -282.2080 
  10   2.0000     -10.370812      -282.2041 
  11   2.0000     -10.354206      -281.7523 
  12   2.0000     -10.346693      -281.5478 
  13   2.0000     -10.342078      -281.4223 
  14   2.0000     -10.336908      -281.2816 
  15   2.0000     -10.336287      -281.2647 
  16   2.0000     -10.332661      -281.1660 
  17   2.0000     -10.329450      -281.0786 
  18   2.0000     -10.324437      -280.9422 
  19   2.0000     -10.321203      -280.8542 
  20   2.0000     -10.318966      -280.7933 
  21   2.0000     -10.306750      -280.4609 
  22   2.0000     -10.304535      -280.4007 
  23   2.0000     -10.303512      -280.3728 
  24   2.0000     -10.300695      -280.2962 
  25   2.0000     -10.300171      -280.2819 
  26   2.0000     -10.297815      -280.2178 
  27   2.0000     -10.297700      -280.2147 
  28   2.0000     -10.296824      -280.1908 
  29   2.0000     -10.295480      -280.1542 
  30   2.0000     -10.293476      -280.0997 
  31   2.0000     -10.288081      -279.9529 
  32   2.0000     -10.286739      -279.9164 
  33   2.0000     -10.283980      -279.8413 
  34   2.0000     -10.277253      -279.6583 
  35   2.0000     -10.275277      -279.6045 
  36   2.0000     -10.273839      -279.5654 
  37   2.0000      -8.087019      -220.0590 
  38   2.0000      -8.085419      -220.0154 
  39   2.0000      -6.040432      -164.3685 
  40   2.0000      -6.038813      -164.3245 
  41   2.0000      -6.036539      -164.2626 
  42   2.0000      -6.034614      -164.2102 
  43   2.0000      -6.033705      -164.1855 
  44   2.0000      -6.032413      -164.1503 
  45   2.0000      -1.289648       -35.0931 
  46   2.0000      -1.282212       -34.8908 
  47   2.0000      -1.184284       -32.2260 
  48   2.0000      -1.110765       -30.2255 
  49   2.0000      -1.021276       -27.7903 
  50   2.0000      -1.012756       -27.5585 
  51   2.0000      -1.004796       -27.3419 
  52   2.0000      -0.987313       -26.8661 
  53   2.0000      -0.977193       -26.5908 
  54   2.0000      -0.967602       -26.3298 
  55   2.0000      -0.940652       -25.5964 
  56   2.0000      -0.929093       -25.2819 
  57   2.0000      -0.919606       -25.0237 
  58   2.0000      -0.905387       -24.6368 
  59   2.0000      -0.893377       -24.3100 
  60   2.0000      -0.875317       -23.8186 
  61   2.0000      -0.859822       -23.3969 
  62   2.0000      -0.849739       -23.1226 
  63   2.0000      -0.844197       -22.9718 
  64   2.0000      -0.842174       -22.9167 
  65   2.0000      -0.823333       -22.4040 
  66   2.0000      -0.817260       -22.2388 
  67   2.0000      -0.781016       -21.2525 
  68   2.0000      -0.771956       -21.0060 
  69   2.0000      -0.755678       -20.5630 
  70   2.0000      -0.737923       -20.0799 
  71   2.0000      -0.729806       -19.8590 
  72   2.0000      -0.725313       -19.7368 
  73   2.0000      -0.718275       -19.5452 
  74   2.0000      -0.712237       -19.3810 
  75   2.0000      -0.705410       -19.1952 
  76   2.0000      -0.698093       -18.9961 
  77   2.0000      -0.668692       -18.1960 
  78   2.0000      -0.666664       -18.1409 
  79   2.0000      -0.653344       -17.7784 
  80   2.0000      -0.632353       -17.2072 
  81   2.0000      -0.629991       -17.1429 
  82   2.0000      -0.618963       -16.8428 
  83   2.0000      -0.612246       -16.6601 
  84   2.0000      -0.608541       -16.5592 
  85   2.0000      -0.602085       -16.3836 
  86   2.0000      -0.591578       -16.0977 
  87   2.0000      -0.586468       -15.9586 
  88   2.0000      -0.573756       -15.6127 
  89   2.0000      -0.572794       -15.5865 
  90   2.0000      -0.567930       -15.4542 
  91   2.0000      -0.565885       -15.3985 
  92   2.0000      -0.561650       -15.2833 
  93   2.0000      -0.555133       -15.1059 
  94   2.0000      -0.551066       -14.9953 
  95   2.0000      -0.543365       -14.7857 
  96   2.0000      -0.539159       -14.6713 
  97   2.0000      -0.533622       -14.5206 
  98   2.0000      -0.531876       -14.4731 
  99   2.0000      -0.526781       -14.3345 
 100   2.0000      -0.522125       -14.2077 
 101   2.0000      -0.514695       -14.0056 
 102   2.0000      -0.511489       -13.9183 
 103   2.0000      -0.508524       -13.8376 
 104   2.0000      -0.502942       -13.6857 
 105   2.0000      -0.499804       -13.6003 
 106   2.0000      -0.495678       -13.4881 
 107   2.0000      -0.482736       -13.1359 
 108   2.0000      -0.479777       -13.0554 
 109   2.0000      -0.476288       -12.9604 
 110   2.0000      -0.471935       -12.8420 
 111   2.0000      -0.470889       -12.8135 
 112   2.0000      -0.468470       -12.7477 
 113   2.0000      -0.464319       -12.6348 
 114   2.0000      -0.456634       -12.4256 
 115   2.0000      -0.450360       -12.2549 
 116   2.0000      -0.448698       -12.2097 
 117   2.0000      -0.447221       -12.1695 
 118   2.0000      -0.443059       -12.0562 
 119   2.0000      -0.437810       -11.9134 
 120   2.0000      -0.429550       -11.6886 
 121   2.0000      -0.416537       -11.3346 
 122   2.0000      -0.415224       -11.2988 
 123   2.0000      -0.407836       -11.0978 
 124   2.0000      -0.404642       -11.0109 
 125   2.0000      -0.394906       -10.7459 
 126   2.0000      -0.374543       -10.1918 
 127   2.0000      -0.363921        -9.9028 
 128   2.0000      -0.346198        -9.4205 
 129   2.0000      -0.345596        -9.4041 
 130   2.0000      -0.336584        -9.1589 
 131   2.0000      -0.328262        -8.9325 
 132   2.0000      -0.303965        -8.2713 
 133   2.0000      -0.292897        -7.9701 
 134   2.0000      -0.271014        -7.3747 
 135   0.0000      -0.006774        -0.1843 
 136   0.0000      -0.000119        -0.0032 
 137   0.0000       0.022727         0.6184 
 138   0.0000       0.047696         1.2979 
 139   0.0000       0.062214         1.6929 
 140   0.0000       0.066596         1.8122 
 141   0.0000       0.080559         2.1921 
 142   0.0000       0.092982         2.5302 
 143   0.0000       0.101376         2.7586 
 144   0.0000       0.106334         2.8935 
 145   0.0000       0.111472         3.0333 
 146   0.0000       0.113405         3.0859 
 147   0.0000       0.115705         3.1485 
 148   0.0000       0.120209         3.2710 
 149   0.0000       0.129034         3.5112 
 150   0.0000       0.135620         3.6904 
 151   0.0000       0.138227         3.7613 
 152   0.0000       0.141374         3.8470 
 153   0.0000       0.144367         3.9284 
 154   0.0000       0.152052         4.1375 
 155   0.0000       0.159395         4.3374 
 156   0.0000       0.161314         4.3896 
 157   0.0000       0.162654         4.4260 
 158   0.0000       0.164630         4.4798 
 159   0.0000       0.168689         4.5902 
 160   0.0000       0.170252         4.6328 
 161   0.0000       0.170945         4.6516 
 162   0.0000       0.175430         4.7737 
 163   0.0000       0.179717         4.8903 
 164   0.0000       0.181029         4.9261 
 165   0.0000       0.182586         4.9684 
 166   0.0000       0.186059         5.0629 
 167   0.0000       0.189688         5.1617 
 168   0.0000       0.193584         5.2677 
 169   0.0000       0.193988         5.2787 
 170   0.0000       0.199167         5.4196 
 171   0.0000       0.204468         5.5639 
 172   0.0000       0.209798         5.7089 
 173   0.0000       0.210446         5.7265 
 174   0.0000       0.213582         5.8119 
 175   0.0000       0.218140         5.9359 
 176   0.0000       0.221340         6.0230 
 177   0.0000       0.225323         6.1314 
 178   0.0000       0.230513         6.2726 
 179   0.0000       0.231584         6.3017 
 180   0.0000       0.238642         6.4938 
 181   0.0000       0.240230         6.5370 
 182   0.0000       0.245355         6.6765 
 183   0.0000       0.250836         6.8256 
 184   0.0000       0.252178         6.8621 
 185   0.0000       0.256726         6.9859 
 186   0.0000       0.258026         7.0212 
 187   0.0000       0.261716         7.1216 
 188   0.0000       0.265681         7.2295 
 189   0.0000       0.268274         7.3001 
 190   0.0000       0.272361         7.4113 
 191   0.0000       0.274355         7.4656 
 192   0.0000       0.274697         7.4749 
 193   0.0000       0.282101         7.6764 
 194   0.0000       0.283121         7.7041 
 195   0.0000       0.283877         7.7247 
 196   0.0000       0.289457         7.8765 
 197   0.0000       0.290954         7.9173 
 198   0.0000       0.293653         7.9907 
 199   0.0000       0.295580         8.0431 
 200   0.0000       0.296899         8.0790 
 201   0.0000       0.299882         8.1602 
 202   0.0000       0.301602         8.2070 
 203   0.0000       0.305010         8.2997 
 204   0.0000       0.311656         8.4806 
 205   0.0000       0.315778         8.5928 
 206   0.0000       0.317210         8.6317 
 207   0.0000       0.321838         8.7577 
 208   0.0000       0.328266         8.9326 
 209   0.0000       0.329176         8.9573 
 210   0.0000       0.332458         9.0466 
 211   0.0000       0.334524         9.1029 
 212   0.0000       0.335638         9.1332 
 213   0.0000       0.339662         9.2427 
 214   0.0000       0.342689         9.3250 
 215   0.0000       0.346574         9.4308 
 216   0.0000       0.347509         9.4562 
 217   0.0000       0.351099         9.5539 
 218   0.0000       0.354809         9.6548 
 219   0.0000       0.359602         9.7853 
 220   0.0000       0.362816         9.8727 
 221   0.0000       0.364472         9.9178 
 222   0.0000       0.366301         9.9676 
 223   0.0000       0.369866        10.0646 
 224   0.0000       0.370534        10.0827 
 225   0.0000       0.375288        10.2121 
 226   0.0000       0.376707        10.2507 
 227   0.0000       0.381641        10.3850 
 228   0.0000       0.384086        10.4515 
 229   0.0000       0.384463        10.4618 
 230   0.0000       0.388774        10.5791 
 231   0.0000       0.389731        10.6051 
 232   0.0000       0.394799        10.7430 
 233   0.0000       0.396732        10.7956 
 234   0.0000       0.398120        10.8334 
 235   0.0000       0.402338        10.9482 
 236   0.0000       0.405970        11.0470 
 237   0.0000       0.410746        11.1770 
 238   0.0000       0.412921        11.2361 
 239   0.0000       0.418136        11.3781 
 240   0.0000       0.421530        11.4704 
 241   0.0000       0.422547        11.4981 
 242   0.0000       0.423067        11.5122 
 243   0.0000       0.425094        11.5674 
 244   0.0000       0.428876        11.6703 
 245   0.0000       0.429106        11.6766 
 246   0.0000       0.433645        11.8001 
 247   0.0000       0.435256        11.8439 
 248   0.0000       0.437686        11.9100 
 249   0.0000       0.440187        11.9781 
 250   0.0000       0.444818        12.1041 
 251   0.0000       0.445160        12.1134 
 252   0.0000       0.450131        12.2487 
 253   0.0000       0.454481        12.3671 
 254   0.0000       0.455347        12.3906 
 255   0.0000       0.457188        12.4407 
 256   0.0000       0.462479        12.5847 
 257   0.0000       0.463324        12.6077 
 258   0.0000       0.465728        12.6731 
 259   0.0000       0.469607        12.7786 
 260   0.0000       0.472189        12.8489 
 261   0.0000       0.473011        12.8713 
 262   0.0000       0.476293        12.9606 
 263   0.0000       0.478118        13.0103 
 264   0.0000       0.478879        13.0310 
 265   0.0000       0.483799        13.1648 
 266   0.0000       0.486759        13.2454 
 267   0.0000       0.488912        13.3040 
 268   0.0000       0.490367        13.3436 
 269   0.0000       0.491258        13.3678 
 270   0.0000       0.495255        13.4766 
 271   0.0000       0.498263        13.5584 
 272   0.0000       0.501091        13.6354 
 273   0.0000       0.504194        13.7198 
 274   0.0000       0.506899        13.7934 
 275   0.0000       0.508374        13.8336 
 276   0.0000       0.509287        13.8584 
 277   0.0000       0.517375        14.0785 
 278   0.0000       0.519828        14.1452 
 279   0.0000       0.522205        14.2099 
 280   0.0000       0.523825        14.2540 
 281   0.0000       0.526805        14.3351 
 282   0.0000       0.532199        14.4819 
 283   0.0000       0.532767        14.4973 
 284   0.0000       0.535828        14.5806 
 285   0.0000       0.541070        14.7233 
 286   0.0000       0.542057        14.7501 
 287   0.0000       0.545726        14.8500 
 288   0.0000       0.547310        14.8931 
 289   0.0000       0.550539        14.9809 
 290   0.0000       0.553043        15.0491 
 291   0.0000       0.554424        15.0866 
 292   0.0000       0.557216        15.1626 
 293   0.0000       0.558614        15.2007 
 294   0.0000       0.560296        15.2464 
 295   0.0000       0.564453        15.3596 
 296   0.0000       0.568761        15.4768 
 297   0.0000       0.570296        15.5185 
 298   0.0000       0.574740        15.6395 
 299   0.0000       0.575677        15.6650 
 300   0.0000       0.578793        15.7497 
 301   0.0000       0.583254        15.8711 
 302   0.0000       0.585012        15.9190 
 303   0.0000       0.588334        16.0094 
 304   0.0000       0.590929        16.0800 
 305   0.0000       0.596177        16.2228 
 306   0.0000       0.600612        16.3435 
 307   0.0000       0.601083        16.3563 
 308   0.0000       0.608366        16.5545 
 309   0.0000       0.612264        16.6605 
 310   0.0000       0.614349        16.7173 
 311   0.0000       0.617863        16.8129 
 312   0.0000       0.621016        16.8987 
 313   0.0000       0.628131        17.0923 
 314   0.0000       0.632915        17.2225 
 315   0.0000       0.638202        17.3664 
 316   0.0000       0.642249        17.4765 
 317   0.0000       0.644508        17.5380 
 318   0.0000       0.651747        17.7349 
 319   0.0000       0.654632        17.8134 
 320   0.0000       0.655510        17.8373 
 321   0.0000       0.665870        18.1192 
 322   0.0000       0.672159        18.2904 
 323   0.0000       0.672675        18.3044 
 324   0.0000       0.674021        18.3410 
 325   0.0000       0.680205        18.5093 
 326   0.0000       0.681928        18.5562 
 327   0.0000       0.687305        18.7025 
 328   0.0000       0.687619        18.7111 
 329   0.0000       0.693690        18.8763 
 330   0.0000       0.695630        18.9291 
 331   0.0000       0.697647        18.9839 
 332   0.0000       0.700213        19.0538 
 333   0.0000       0.703218        19.1355 
 334   0.0000       0.706510        19.2251 
 335   0.0000       0.710412        19.3313 
 336   0.0000       0.715062        19.4578 
 337   0.0000       0.718614        19.5545 
 338   0.0000       0.720130        19.5957 
 339   0.0000       0.724556        19.7162 
 340   0.0000       0.726844        19.7784 
 341   0.0000       0.732326        19.9276 
 342   0.0000       0.736513        20.0415 
 343   0.0000       0.739037        20.1102 
 344   0.0000       0.740482        20.1495 
 345   0.0000       0.745336        20.2816 
 346   0.0000       0.746406        20.3107 
 347   0.0000       0.748092        20.3566 
 348   0.0000       0.756966        20.5981 
 349   0.0000       0.761192        20.7131 
 350   0.0000       0.763342        20.7716 
 351   0.0000       0.767185        20.8762 
 352   0.0000       0.770506        20.9665 
 353   0.0000       0.773742        21.0546 
 354   0.0000       0.777929        21.1685 
 355   0.0000       0.780714        21.2443 
 356   0.0000       0.782021        21.2799 
 357   0.0000       0.788879        21.4665 
 358   0.0000       0.793785        21.6000 
 359   0.0000       0.796594        21.6764 
 360   0.0000       0.797443        21.6995 
 361   0.0000       0.801558        21.8115 
 362   0.0000       0.802474        21.8364 
 363   0.0000       0.807160        21.9639 
 364   0.0000       0.811631        22.0856 
 365   0.0000       0.819054        22.2876 
 366   0.0000       0.819930        22.3114 
 367   0.0000       0.826900        22.5011 
 368   0.0000       0.828461        22.5436 
 369   0.0000       0.833463        22.6797 
 370   0.0000       0.838448        22.8153 
 371   0.0000       0.840109        22.8605 
 372   0.0000       0.844206        22.9720 
 373   0.0000       0.849050        23.1038 
 374   0.0000       0.851583        23.1727 
 375   0.0000       0.855056        23.2673 
 376   0.0000       0.858240        23.3539 
 377   0.0000       0.867366        23.6022 
 378   0.0000       0.871847        23.7242 
 379   0.0000       0.876091        23.8396 
 380   0.0000       0.878952        23.9175 
 381   0.0000       0.881123        23.9766 
 382   0.0000       0.891084        24.2476 
 383   0.0000       0.893799        24.3215 
 384   0.0000       0.898071        24.4378 
 385   0.0000       0.900328        24.4992 
 386   0.0000       0.903591        24.5880 
 387   0.0000       0.906169        24.6581 
 388   0.0000       0.910306        24.7707 
 389   0.0000       0.915305        24.9067 
 390   0.0000       0.920384        25.0449 
 391   0.0000       0.922433        25.1007 
 392   0.0000       0.928278        25.2597 
 393   0.0000       0.933768        25.4091 
 394   0.0000       0.938570        25.5398 
 395   0.0000       0.942207        25.6388 
 396   0.0000       0.946451        25.7542 
 397   0.0000       0.947653        25.7869 
 398   0.0000       0.949192        25.8288 
 399   0.0000       0.952365        25.9152 
 400   0.0000       0.959136        26.0994 
 401   0.0000       0.962119        26.1806 
 402   0.0000       0.968099        26.3433 
 403   0.0000       0.974431        26.5156 
 404   0.0000       0.980456        26.6796 
 405   0.0000       0.987575        26.8733 
 406   0.0000       0.988034        26.8858 
 407   0.0000       0.992430        27.0054 
 408   0.0000       0.996907        27.1272 
 409   0.0000       1.001010        27.2389 
 410   0.0000       1.004827        27.3427 
 411   0.0000       1.007945        27.4276 
 412   0.0000       1.012840        27.5608 
 413   0.0000       1.017348        27.6834 
 414   0.0000       1.021588        27.7988 
 415   0.0000       1.027486        27.9593 
 416   0.0000       1.037108        28.2212 
 417   0.0000       1.038075        28.2474 
 418   0.0000       1.038977        28.2720 
 419   0.0000       1.043494        28.3949 
 420   0.0000       1.051507        28.6130 
 421   0.0000       1.054108        28.6837 
 422   0.0000       1.058279        28.7972 
 423   0.0000       1.065662        28.9981 
 424   0.0000       1.068386        29.0723 
 425   0.0000       1.075704        29.2714 
 426   0.0000       1.081031        29.4164 
 427   0.0000       1.085706        29.5436 
 428   0.0000       1.086970        29.5780 
 429   0.0000       1.094387        29.7798 
 430   0.0000       1.098558        29.8933 
 431   0.0000       1.102703        30.0061 
 432   0.0000       1.104526        30.0557 
 433   0.0000       1.109633        30.1946 
 434   0.0000       1.118013        30.4227 
 435   0.0000       1.120726        30.4965 
 436   0.0000       1.126018        30.6405 
 437   0.0000       1.127453        30.6795 
 438   0.0000       1.136048        30.9134 
 439   0.0000       1.139780        31.0150 
 440   0.0000       1.143626        31.1196 
 441   0.0000       1.148033        31.2396 
 442   0.0000       1.152962        31.3737 
 443   0.0000       1.155901        31.4537 
 444   0.0000       1.163096        31.6495 
 445   0.0000       1.166320        31.7372 
 446   0.0000       1.172854        31.9150 
 447   0.0000       1.174346        31.9556 
 448   0.0000       1.179485        32.0954 
 449   0.0000       1.180805        32.1313 
 450   0.0000       1.182609        32.1804 
 451   0.0000       1.194952        32.5163 
 452   0.0000       1.196907        32.5695 
 453   0.0000       1.207805        32.8660 
 454   0.0000       1.214165        33.0391 
 455   0.0000       1.220913        33.2227 
 456   0.0000       1.224349        33.3162 
 457   0.0000       1.224977        33.3333 
 458   0.0000       1.229518        33.4569 
 459   0.0000       1.235387        33.6166 
 460   0.0000       1.240868        33.7657 
 461   0.0000       1.247279        33.9402 
 462   0.0000       1.251906        34.0661 
 463   0.0000       1.255235        34.1567 
 464   0.0000       1.259695        34.2780 
 465   0.0000       1.268533        34.5185 
 466   0.0000       1.270839        34.5813 
 467   0.0000       1.276566        34.7371 
 468   0.0000       1.282539        34.8997 
 469   0.0000       1.286918        35.0188 
 470   0.0000       1.293975        35.2108 
 471   0.0000       1.296640        35.2834 
 472   0.0000       1.303545        35.4713 
 473   0.0000       1.305626        35.5279 
 474   0.0000       1.312778        35.7225 
 475   0.0000       1.319938        35.9173 
 476   0.0000       1.323685        36.0193 
 477   0.0000       1.326140        36.0861 
 478   0.0000       1.330943        36.2168 
 479   0.0000       1.333134        36.2764 
 480   0.0000       1.340451        36.4755 
 481   0.0000       1.351549        36.7775 
 482   0.0000       1.356326        36.9075 
 483   0.0000       1.359200        36.9857 
 484   0.0000       1.365136        37.1472 
 485   0.0000       1.372005        37.3342 
 486   0.0000       1.374126        37.3919 
 487   0.0000       1.383603        37.6497 
 488   0.0000       1.391371        37.8611 
 489   0.0000       1.400124        38.0993 
 490   0.0000       1.402004        38.1505 
 491   0.0000       1.403207        38.1832 
 492   0.0000       1.407188        38.2915 
 493   0.0000       1.408733        38.3336 
 494   0.0000       1.413928        38.4750 
 495   0.0000       1.419317        38.6216 
 496   0.0000       1.425030        38.7770 
 497   0.0000       1.434055        39.0226 
 498   0.0000       1.435454        39.0607 
 499   0.0000       1.443797        39.2877 
 500   0.0000       1.448019        39.4026 
 501   0.0000       1.452083        39.5132 
 502   0.0000       1.455093        39.5951 
 503   0.0000       1.456876        39.6436 
 504   0.0000       1.460562        39.7439 
 505   0.0000       1.470832        40.0234 
 506   0.0000       1.474680        40.1281 
 507   0.0000       1.476523        40.1782 
 508   0.0000       1.481981        40.3268 
 509   0.0000       1.487967        40.4896 
 510   0.0000       1.490161        40.5493 
 511   0.0000       1.493455        40.6390 
 512   0.0000       1.505130        40.9567 
 513   0.0000       1.510726        41.1089 
 514   0.0000       1.512685        41.1623 
 515   0.0000       1.516918        41.2774 
 516   0.0000       1.524615        41.4869 
 517   0.0000       1.527007        41.5520 
 518   0.0000       1.532926        41.7130 
 519   0.0000       1.543378        41.9975 
 520   0.0000       1.545625        42.0586 
 521   0.0000       1.552449        42.2443 
 522   0.0000       1.555041        42.3148 
 523   0.0000       1.557336        42.3773 
 524   0.0000       1.564726        42.5784 
 525   0.0000       1.568865        42.6910 
 526   0.0000       1.573899        42.8280 
 527   0.0000       1.575123        42.8613 
 528   0.0000       1.575860        42.8813 
 529   0.0000       1.580213        42.9998 
 530   0.0000       1.587102        43.1872 
 531   0.0000       1.591851        43.3165 
 532   0.0000       1.595609        43.4187 
 533   0.0000       1.603585        43.6358 
 534   0.0000       1.606142        43.7053 
 535   0.0000       1.607730        43.7486 
 536   0.0000       1.608280        43.7635 
 537   0.0000       1.611662        43.8556 
 538   0.0000       1.615963        43.9726 
 539   0.0000       1.618342        44.0373 
 540   0.0000       1.621182        44.1146 
 541   0.0000       1.624685        44.2099 
 542   0.0000       1.626172        44.2504 
 543   0.0000       1.634090        44.4658 
 544   0.0000       1.641049        44.6552 
 545   0.0000       1.645237        44.7692 
 546   0.0000       1.647050        44.8185 
 547   0.0000       1.654830        45.0302 
 548   0.0000       1.656582        45.0779 
 549   0.0000       1.658625        45.1335 
 550   0.0000       1.663361        45.2624 
 551   0.0000       1.666502        45.3478 
 552   0.0000       1.668107        45.3915 
 553   0.0000       1.672840        45.5203 
 554   0.0000       1.680447        45.7273 
 555   0.0000       1.682991        45.7965 
 556   0.0000       1.684519        45.8381 
 557   0.0000       1.691164        46.0189 
 558   0.0000       1.693241        46.0754 
 559   0.0000       1.698671        46.2232 
 560   0.0000       1.702714        46.3332 
 561   0.0000       1.704310        46.3766 
 562   0.0000       1.706331        46.4316 
 563   0.0000       1.709207        46.5099 
 564   0.0000       1.716739        46.7148 
 565   0.0000       1.717826        46.7444 
 566   0.0000       1.719277        46.7839 
 567   0.0000       1.730079        47.0778 
 568   0.0000       1.733407        47.1684 
 569   0.0000       1.742014        47.4026 
 570   0.0000       1.746237        47.5175 
 571   0.0000       1.749341        47.6020 
 572   0.0000       1.753453        47.7139 
 573   0.0000       1.758958        47.8637 
 574   0.0000       1.760517        47.9061 
 575   0.0000       1.768822        48.1321 
 576   0.0000       1.774148        48.2770 
 577   0.0000       1.781533        48.4780 
 578   0.0000       1.785114        48.5754 
 579   0.0000       1.789052        48.6826 
 580   0.0000       1.793818        48.8123 
 581   0.0000       1.798571        48.9416 
 582   0.0000       1.801916        49.0326 
 583   0.0000       1.807518        49.1851 
 584   0.0000       1.811000        49.2798 
 585   0.0000       1.813965        49.3605 
 586   0.0000       1.815549        49.4036 
 587   0.0000       1.827254        49.7221 
 588   0.0000       1.833417        49.8898 
 589   0.0000       1.833693        49.8973 
 590   0.0000       1.836341        49.9694 
 591   0.0000       1.844965        50.2041 
 592   0.0000       1.847513        50.2734 
 593   0.0000       1.853470        50.4355 
 594   0.0000       1.861254        50.6473 
 595   0.0000       1.865523        50.7635 
 596   0.0000       1.868665        50.8490 
 597   0.0000       1.890737        51.4496 
 598   0.0000       1.895125        51.5690 
 599   0.0000       1.897548        51.6349 
 600   0.0000       1.901362        51.7387 
 601   0.0000       1.904165        51.8150 
 602   0.0000       1.907607        51.9086 
 603   0.0000       1.916464        52.1496 
 604   0.0000       1.919313        52.2272 
 605   0.0000       1.924733        52.3747 
 606   0.0000       1.929653        52.5085 
 607   0.0000       1.933628        52.6167 
 608   0.0000       1.944983        52.9257 
 609   0.0000       1.946891        52.9776 
 610   0.0000       1.953603        53.1602 
 611   0.0000       1.957373        53.2628 
 612   0.0000       1.964895        53.4675 
 613   0.0000       1.970607        53.6229 
 614   0.0000       1.972733        53.6808 
 615   0.0000       1.982131        53.9365 
 616   0.0000       1.983483        53.9733 
 617   0.0000       1.990203        54.1562 
[...]
 118   8.545     145.1   0.031465   0.026800  -29.724517  -28.508356     0.12 (  77->  86)    0.07 (  76->  88)    0.03 (  82-> 111)
 119   8.563     144.8   0.033862   0.031592  -30.258788  -32.535136     0.05 (  55->  87)    0.04 (  68->  87)    0.03 (  55->  86)
 120   8.578     144.5   0.014759   0.013568  -4.639595  -4.807405     0.14 (  77->  86)    0.09 (  77->  87)    0.06 (  77->  93)
 121   8.597     144.2   0.014087   0.013531  -6.380074  -5.168924     0.09 (  84-> 118)    0.07 (  84-> 121)    0.07 (  85->  93)
 122   8.609     144.0   0.011571   0.010334  15.468279  14.821313     0.39 (  85->  93)    0.13 (  85->  92)    0.02 (  80-> 106)
 123   8.652     143.3   0.302644   0.276396  30.194672  22.313108     0.07 (  77->  92)    0.07 (  77->  93)    0.05 (  80->  93)
 124   8.681     142.8   0.037257   0.033455  28.758498  27.410520     0.06 (  83->  90)    0.05 (  80->  92)    0.04 (  71->  92)
 125   8.688     142.7   0.033661   0.031401  -32.701239  -29.365408     0.17 (  79-> 102)    0.08 (  79->  96)    0.05 (  83->  90)
 126   8.692     142.6   0.019180   0.019697  21.214417  20.941566     0.23 (  77->  93)    0.06 (  76->  86)    0.05 (  77->  88)
 127   8.706     142.4   0.101081   0.093650  -25.723011  -24.681522     0.16 (  82-> 111)    0.06 (  82->  98)    0.05 (  74->  91)
 128   8.711     142.3   0.036053   0.030636  -28.088080  -24.319711     0.15 (  82-> 111)    0.06 (  63->  86)    0.04 (  82->  98)
 129   8.724     142.1   0.018647   0.017355  -4.124549  -3.936080     0.49 (  83->  90)    0.04 (  71->  92)    0.04 (  70->  92)
 130   8.747     141.7   0.106458   0.089758  15.047645  13.840070     0.11 (  60->  87)    0.07 (  70->  92)    0.04 (  71->  92)
 131   8.766     141.4   0.024583   0.019546  20.605884  16.558849     0.04 (  70->  92)    0.03 (  59->  86)    0.03 (  73->  90)
 132   8.767     141.4   0.005826   0.004225   4.267864   6.661228     0.11 (  83-> 114)    0.04 (  84-> 121)    0.03 (  73->  90)
 133   8.782     141.2   0.026343   0.025236   3.790168   4.307654     0.06 (  84-> 124)    0.04 (  83-> 114)    0.04 (  77->  93)
 134   8.804     140.8   0.024862   0.023484   8.308382   6.808015     0.11 (  83->  91)    0.04 (  83-> 114)    0.03 (  83->  90)
 135   8.824     140.5   0.011962   0.009026   0.811114  -0.153350     0.19 (  75->  87)    0.11 (  75->  86)    0.11 (  72->  87)
 136   8.828     140.4   0.038250   0.032649  26.210056  23.734390     0.06 (  75->  87)    0.03 (  73->  90)    0.03 (  80-> 110)
 137   8.833     140.4   0.076389   0.065750  36.494713  31.548210     0.07 (  73->  90)    0.05 (  78->  88)    0.05 (  73->  88)
 138   8.839     140.3   0.003314   0.003012  18.169526  17.046597     0.58 (  83->  91)    0.04 (  83-> 114)    0.03 (  77->  95)
 139   8.853     140.0   0.031863   0.029637  25.231599  23.906031     0.07 (  83->  91)    0.04 (  75->  87)    0.04 (  77->  95)
 140   8.869     139.8   0.008289   0.007836  -4.043088  -3.713363     0.26 (  72->  86)    0.09 (  72->  87)    0.09 (  75->  86)
 141   8.878     139.7   0.014440   0.011524  15.080723  13.603225     0.04 (  74->  91)    0.03 (  73->  88)    0.03 (  73->  91)
 142   8.881     139.6   0.030417   0.028179  -15.368077  -14.683995     0.08 (  85-> 122)    0.04 (  58->  86)    0.04 (  63->  86)
 143   8.915     139.1   0.055852   0.046351  10.638029   8.398092     0.14 (  85-> 125)    0.08 (  73->  91)    0.06 (  85-> 122)
 144   8.930     138.8   0.001873   0.001796  -2.861111  -3.445842     0.19 (  67->  89)    0.12 (  72->  89)    0.10 (  62->  89)
 145   8.936     138.7   0.031811   0.026778  -57.450579  -52.395731     0.39 (  82->  89)    0.06 (  81->  89)    0.06 (  80->  89)
 146   8.949     138.5   0.032391   0.025823  -54.295711  -49.025680     0.17 (  82->  89)    0.05 (  80->  89)    0.04 (  79-> 105)
 147   8.968     138.3   0.000624   0.000485   4.002946   3.619152     0.21 (  85-> 125)    0.05 (  85-> 126)    0.04 (  82-> 105)
 148   8.980     138.1   0.022160   0.020888   9.913830   9.393650     0.05 (  77->  95)    0.04 (  85-> 125)    0.04 (  83-> 118)
 149   8.993     137.9   0.075972   0.066815  -106.861320  -99.444537     0.06 (  77->  95)    0.04 (  78->  94)    0.04 (  76->  95)
 150   9.019     137.5   0.098377   0.089280  35.084978  31.467727     0.07 (  82-> 104)    0.06 (  78->  94)    0.03 (  58->  86)
 151   9.050     137.0   0.037559   0.035068  -80.853462  -77.678716     0.06 (  85->  97)    0.03 (  85->  98)    0.03 (  85->  93)
 152   9.057     136.9   0.029887   0.025519   4.700068   3.665176     0.08 (  85-> 126)    0.08 (  85-> 123)    0.06 (  85->  97)
 153   9.069     136.7   0.058107   0.051751  78.076276  75.172263     0.08 (  57->  86)    0.05 (  85->  97)    0.05 (  57->  87)
 154   9.081     136.5   0.011140   0.010668  48.653254  46.083221     0.07 (  85->  97)    0.06 (  85->  99)    0.04 (  85->  98)
 155   9.101     136.2   0.005234   0.004189  -8.608481  -7.223377     0.03 (  81->  97)    0.03 (  80-> 100)    0.03 (  77->  97)
 156   9.106     136.2   0.073771   0.069669  -58.458662  -57.328305     0.05 (  71->  86)    0.03 (  63->  86)    0.03 (  83-> 115)
 157   9.120     135.9   0.016258   0.015132  -36.989168  -38.324878     0.06 (  83-> 115)    0.04 (  84-> 121)    0.03 (  63->  86)
 158   9.126     135.9   0.011223   0.010092  -42.420566  -39.947828     0.07 (  58->  86)    0.04 (  84-> 121)    0.03 (  58->  87)
 159   9.146     135.6   0.011852   0.010864  18.412862  18.987157     0.05 (  85-> 127)    0.04 (  78-> 100)    0.04 (  78->  99)
 160   9.156     135.4   0.003028   0.003174   1.858934   1.960805     0.03 (  68->  89)    0.03 (  83-> 121)    0.03 (  77->  93)
 161   9.173     135.2   0.050217   0.043977   3.827169   2.046005     0.04 (  78->  94)    0.04 (  56->  86)    0.03 (  73->  94)
 162   9.189     134.9   0.001962   0.001900  -7.532544  -7.199438     0.11 (  61->  89)    0.08 (  71->  92)    0.06 (  70->  89)
 163   9.198     134.8   0.026443   0.023018  -4.783583  -5.161460     0.11 (  85->  95)    0.09 (  85-> 127)    0.04 (  85-> 126)
 164   9.210     134.6   0.036563   0.030097  35.336734  31.511383     0.05 (  85-> 127)    0.04 (  78->  96)    0.03 (  85-> 128)
 165   9.216     134.5   0.028281   0.024869  -21.183786  -19.918759     0.08 (  83-> 121)    0.07 (  77->  95)    0.03 (  84-> 121)
 166   9.219     134.5   0.005787   0.005307  19.262323  17.909643     0.05 (  83-> 121)    0.05 (  83-> 124)    0.04 (  76->  86)
 167   9.234     134.3   0.003840   0.002915  -8.097392  -5.071524     0.06 (  85-> 127)    0.05 (  76->  86)    0.04 (  82-> 101)
 168   9.241     134.2   0.055405   0.050645   1.496692   1.418921     0.19 (  75->  91)    0.09 (  75->  90)    0.06 (  72->  91)
 169   9.257     133.9   0.014169   0.012306   5.272407   4.460248     0.23 (  85->  95)    0.06 (  85-> 127)    0.03 (  76->  92)
 170   9.259     133.9   0.002785   0.002386   8.472710   7.724021     0.10 (  85->  95)    0.05 (  85-> 127)    0.05 (  76->  92)
 171   9.284     133.5   0.005838   0.004971  -8.127314  -6.911986     0.04 (  74->  91)    0.04 (  85-> 128)    0.04 (  85->  95)
 172   9.310     133.2   0.001741   0.001300  -4.633442  -4.834193     0.07 (  80->  92)    0.05 (  76->  86)    0.04 (  67->  92)
 173   9.315     133.1   0.005059   0.004395  -0.831409  -0.492308     0.13 (  67->  92)    0.08 (  62->  89)    0.08 (  73->  94)
 174   9.327     132.9   0.006953   0.005720   2.051641   1.873327     0.13 (  67->  92)    0.12 (  73->  94)    0.07 (  62->  89)
 175   9.337     132.8   0.004964   0.004736  10.711652  10.001911     0.17 (  85->  95)    0.05 (  85->  97)    0.04 (  85-> 128)
 176   9.345     132.7   0.019205   0.017718  -14.744101  -15.413399     0.05 (  80->  92)    0.03 (  82->  92)    0.03 (  84->  96)
 177   9.348     132.6   0.002187   0.001517  -14.723236  -11.179816     0.06 (  85->  95)    0.04 (  80->  92)    0.03 (  76->  86)
 178   9.371     132.3   0.008804   0.008250  15.077617  14.537432     0.14 (  81->  90)    0.03 (  78->  96)    0.02 (  76->  86)
 179   9.374     132.3   0.005857   0.005815   4.903710   4.280118     0.24 (  61->  89)    0.06 (  70->  93)    0.05 (  71->  93)
 180   9.389     132.0   0.009527   0.008554  -26.020787  -25.572824     0.08 (  81->  90)    0.07 (  78->  96)    0.02 (  73->  94)
 181   9.397     131.9   0.020066   0.018237  24.285780  23.064614     0.05 (  73->  94)    0.04 (  75->  91)    0.04 (  65->  88)
 182   9.431     131.5   0.009423   0.007878  -9.626636  -6.933084     0.08 (  60->  89)    0.07 (  80-> 111)    0.04 (  76->  93)
 183   9.445     131.3   0.000275   0.000420  -1.448099  -1.497872     0.09 (  76->  93)    0.05 (  81-> 100)    0.04 (  77->  97)
 184   9.457     131.1   0.002673   0.002610  -3.409911  -3.418670     0.09 (  81->  90)    0.04 (  81->  91)    0.04 (  60->  89)
 185   9.459     131.1   0.008975   0.006972  11.402642   9.587911     0.04 (  85-> 127)    0.04 (  82-> 102)    0.03 (  82-> 109)
 186   9.467     131.0   0.002141   0.002120   1.763635   1.773894     0.22 (  81->  91)    0.03 (  80->  90)    0.03 (  60->  89)
 187   9.478     130.8   0.001271   0.001394   1.705891   2.205012     0.07 (  81->  91)    0.05 (  81-> 101)    0.04 (  81-> 100)
 188   9.486     130.7   0.009114   0.008076   3.896096   5.389469     0.07 (  85-> 128)    0.04 (  82-> 102)    0.04 (  78->  96)
 189   9.502     130.5   0.001961   0.001689  10.738551   9.127813     0.10 (  74->  87)    0.06 (  81->  91)    0.04 (  74->  86)
 190   9.527     130.1   0.010804   0.009758  -6.051637  -7.202885     0.05 (  73->  87)    0.04 (  75->  90)    0.04 (  73->  86)
 191   9.543     129.9   0.012639   0.011605   2.662868   3.279534     0.11 (  83-> 121)    0.08 (  83-> 123)    0.03 (  84->  94)
 192   9.569     129.6   0.001434   0.000891   0.263339   0.235442     0.06 (  83-> 124)    0.05 (  83-> 110)    0.05 (  84-> 129)
 193   9.579     129.4   0.030651   0.026229   1.472915   2.244475     0.10 (  66->  91)    0.05 (  66->  90)    0.04 (  79->  89)
 194   9.584     129.4   0.042339   0.035157   2.469664   2.285503     0.06 (  74->  87)    0.04 (  66->  91)    0.03 (  85-> 134)
 195   9.599     129.2   0.009125   0.008223  -8.602046  -8.369374     0.24 (  84->  94)    0.05 (  81->  91)    0.04 (  81->  90)
 196   9.611     129.0   0.006973   0.005586   3.617775   2.819961     0.04 (  65->  88)    0.04 (  55->  88)    0.03 (  56->  88)
 197   9.625     128.8   0.070256   0.062517   6.423447   6.171032     0.10 (  54->  86)    0.04 (  67->  88)    0.04 (  54->  87)
 198   9.638     128.6   0.013352   0.011531   3.202944   2.211440     0.41 (  79->  89)    0.03 (  80->  89)    0.02 (  67->  88)
 199   9.647     128.5   0.014650   0.012402  18.252281  16.229847     0.09 (  79->  89)    0.05 (  55->  88)    0.04 (  67->  88)
 200   9.653     128.4   0.000374   0.000351   5.788448   5.917172     0.03 (  79->  89)    0.03 (  74->  87)    0.03 (  80-> 115)
 201   9.657     128.4   0.029535   0.027029  45.701147  43.225989     0.15 (  84->  94)    0.05 (  81->  91)    0.02 (  84->  96)
 202   9.669     128.2   0.016944   0.013642  -43.146052  -39.942610     0.16 (  79->  89)    0.05 (  54->  86)    0.03 (  74->  96)
 203   9.680     128.1   0.016965   0.016255  -10.893281  -8.316572     0.03 (  83-> 123)    0.03 (  83-> 130)    0.03 (  81-> 103)
 204   9.686     128.0   0.035745   0.027159  15.789376  13.797116     0.06 (  85-> 132)    0.04 (  85-> 134)    0.04 (  65->  91)
 205   9.698     127.8   0.008397   0.007499  -17.281945  -16.533487     0.11 (  76->  92)    0.08 (  84-> 130)    0.06 (  84-> 123)
 206   9.706     127.7   0.024403   0.021052  -6.871826  -3.079623     0.04 (  80-> 101)    0.03 (  84->  94)    0.03 (  81-> 103)
 207   9.711     127.7   0.012258   0.009741  -2.506303  -1.778293     0.05 (  74->  88)    0.04 (  78->  89)    0.04 (  65->  88)
 208   9.728     127.4   0.066726   0.058725  42.096495  38.897387     0.05 (  79-> 104)    0.03 (  79->  89)    0.03 (  79-> 103)
 209   9.738     127.3   0.022457   0.019883  20.752682  19.526160     0.05 (  84->  94)    0.02 (  79-> 104)    0.02 (  54->  86)
 210   9.753     127.1   0.047628   0.042291  -4.768654  -3.899071     0.05 (  84->  94)    0.04 (  85-> 132)    0.04 (  65->  90)
 211   9.765     127.0   0.017510   0.015951  -40.110180  -39.023010     0.05 (  75->  89)    0.05 (  75->  97)    0.04 (  72->  89)
 212   9.774     126.8   0.020233   0.017689  13.617697  13.820887     0.12 (  78->  89)    0.04 (  82->  92)    0.03 (  70->  91)
 213   9.778     126.8   0.024467   0.022201  -22.256754  -21.135561     0.04 (  82->  93)    0.03 (  75->  99)    0.02 (  82->  92)
 214   9.797     126.6   0.032170   0.027727   4.462135   5.125394     0.07 (  79-> 119)    0.05 (  79-> 116)    0.05 (  79-> 109)
 215   9.807     126.4   0.010805   0.009811  -18.797391  -18.377160     0.06 (  84-> 124)    0.06 (  84->  96)    0.03 (  81-> 108)
 216   9.810     126.4   0.050248   0.045333  -14.711222  -11.726174     0.06 (  50->  87)    0.04 (  71->  88)    0.03 (  70->  88)
 217   9.813     126.3   0.009816   0.008298   6.928449   5.521621     0.07 (  78->  89)    0.05 (  84-> 124)    0.02 (  50->  87)
 218   9.824     126.2   0.004902   0.004520  -0.656979  -0.714088     0.26 (  78->  89)    0.03 (  84-> 124)    0.02 (  74->  87)
 219   9.830     126.1   0.006913   0.006703  -8.490921  -8.083063     0.08 (  76->  93)    0.06 (  77->  97)    0.03 (  77->  98)
 220   9.836     126.0   0.022811   0.021486  17.164158  15.676001     0.07 (  76->  93)    0.06 (  77->  97)    0.04 (  84-> 123)
 221   9.846     125.9   0.018937   0.015738  21.086395  18.851231     0.05 (  54->  86)    0.04 (  65->  91)    0.04 (  54->  87)
 222   9.860     125.7   0.033420   0.027157  25.729431  22.577077     0.17 (  82->  92)    0.06 (  82->  93)    0.05 (  80->  92)
 223   9.870     125.6   0.007352   0.006715   1.700684   1.646893     0.22 (  84->  96)    0.09 (  84->  99)    0.08 (  84->  98)
 224   9.883     125.5   0.050251   0.046395  -21.944182  -21.216355     0.06 (  82->  92)    0.06 (  82-> 109)    0.03 (  85-> 132)
 225   9.899     125.2   0.011904   0.009694  -9.796711  -7.404430     0.04 (  85-> 100)    0.04 (  80->  92)    0.03 (  80->  93)
 226   9.902     125.2   0.035997   0.029915  -22.011357  -19.669423     0.25 (  83->  94)    0.02 (  59->  90)    0.01 (  66->  90)
 227   9.907     125.1   0.019937   0.016348   6.510041   6.241293     0.24 (  83->  94)    0.02 (  74->  88)    0.02 (  78->  89)
 228   9.917     125.0   0.001938   0.001561  -3.335469  -4.464815     0.04 (  85-> 101)    0.04 (  70->  88)    0.03 (  85-> 100)
 229   9.932     124.8   0.004072   0.003274  -9.733002  -9.434117     0.04 (  68->  92)    0.03 (  69->  88)    0.02 (  83-> 122)
 230   9.944     124.7   0.011496   0.009066   1.887888   2.102180     0.06 (  78-> 102)    0.04 (  73->  96)    0.02 (  79-> 107)
 231   9.950     124.6   0.005099   0.003825  -1.418345  -3.678620     0.04 (  83->  94)    0.03 (  60->  89)    0.03 (  68->  88)
 232   9.959     124.5   0.019553   0.016663  -4.470064  -4.957387     0.08 (  65->  91)    0.06 (  85-> 101)    0.04 (  85-> 100)
 233   9.962     124.5   0.009394   0.007939  29.549148  27.211271     0.04 (  68->  92)    0.03 (  48->  87)    0.03 (  76->  92)
 234   9.973     124.3   0.005410   0.004653  14.416926  10.560725     0.03 (  51->  87)    0.03 (  60->  89)    0.02 (  59->  90)
 235   9.979     124.2   0.044275   0.038714   1.009490   0.566155     0.03 (  66->  91)    0.03 (  82-> 117)    0.02 (  66->  90)
 236   9.987     124.1   0.090105   0.079456   1.661492   2.754785     0.04 (  85-> 104)    0.03 (  82-> 117)    0.03 (  85-> 106)

sTD-DFT done

Total run time:       52.011 sec

           *** ORCA-CIS/TD-DFT FINISHED WITHOUT ERROR ***


-------------------------------------------------------------------------------
                          DFT DISPERSION CORRECTION                            
                                                                               
                              DFTD3 V3.1  Rev 1                                
                              USING zero damping                               
-------------------------------------------------------------------------------
The omegaB97X-D3 functional is recognized. Fit by Chai et al.
Active option DFTDOPT                   ...         3   

molecular C6(AA) [au] = 47961.723625 


            DFT-D V3
 parameters
 s6 scaling factor         :     1.0000 
 rs6 scaling factor        :     1.2810 
 s8 scaling factor         :     1.0000 
 rs8 scaling factor        :     1.0940 
 Damping factor alpha6     :    14.0000 
 Damping factor alpha8     :    16.0000 
 ad hoc parameters k1-k3   :    16.0000     1.3333    -4.0000 

 Edisp/kcal,au: -16.843111057253  -0.026841203132 
 E6   /kcal   :  -7.671210572 
 E8   /kcal   :  -9.171900486 
 % E8         :  54.454907140 

-------------------------   ----------------
Dispersion correction           -0.026841203
-------------------------   ----------------


-------------------------   --------------------
FINAL SINGLE POINT ENERGY     -2302.885550970168
-------------------------   --------------------


                            ***************************************
                            *     ORCA property calculations      *
                            ***************************************

                                    ---------------------
                                    Active property flags
                                    ---------------------
   (+) Dipole Moment
   (+) Quadrupole Moment


------------------------------------------------------------------------------
                       ORCA ELECTRIC PROPERTIES CALCULATION
------------------------------------------------------------------------------

Dipole Moment Calculation                       ... on
Quadrupole Moment Calculation                   ... on
Polarizability Calculation                      ... off
GBWName                                         ... total_job2.gbw
Electron density file                           ... total_job2.scfp.tmp

-------------
DIPOLE MOMENT
-------------
                                X             Y             Z
Electronic contribution:     11.72205       0.58923       7.23430
Nuclear contribution   :    -11.49711      -2.44243      -5.94249
                        -----------------------------------------
Total Dipole Moment    :      0.22494      -1.85319       1.29181
                        -----------------------------------------
Magnitude (a.u.)       :      2.27017
Magnitude (Debye)      :      5.77032


------------------------
QUADRUPOLE MOMENT (A.U.)
------------------------

                XX           YY           ZZ           XY           XZ           YZ
  NUC     36654.80800   1218.42412   2337.33136  -1118.95380  -1747.44041  -1136.47116
  EL     -36753.09103  -1393.00202  -2500.15183   1107.51254   1755.30682   1132.67809
  TOT       -98.28304   -174.57790   -162.82047    -11.44126      7.86641     -3.79307

--------------------------------------------------------------------------
[[7191,1],12]: A high-performance Open MPI point-to-point messaging module
was unable to find any relevant network interfaces:

Module: OpenFabrics (openib)
  Host: cx1-136-13-1

Another transport will be used instead, although this may result in
lower performance.
--------------------------------------------------------------------------

Timings for individual modules:

Sum of individual times         ...      257.034 sec (=   4.284 min)
GTO integral calculation        ...        7.404 sec (=   0.123 min)   2.9 %
SCF iterations                  ...      195.169 sec (=   3.253 min)  75.9 %
CIS module                      ...       54.461 sec (=   0.908 min)  21.2 %



                             ****ORCA TERMINATED NORMALLY****
TOTAL RUN TIME: 0 days 0 hours 15 minutes 37 seconds 80 msec
