
                                 *****************
                                 * O   R   C   A *
                                 *****************

           --- An Ab Initio, DFT and Semiempirical electronic structure package ---

                  #######################################################
                  #                        -***-                        #
                  #  Department of molecular theory and spectroscopy    #
                  #              Directorship: Frank Neese              #
                  # Max Planck Institute for Chemical Energy Conversion #
                  #                  D-45470 Muelheim/Ruhr              #
                  #                       Germany                       #
                  #                                                     #
                  #                  All rights reserved                #
                  #                        -***-                        #
                  #######################################################


                         Program Version 4.0.0 -  RELEASE  -


 With contributions from (in alphabetic order):
   Daniel Aravena         : Magnetic Properties
   Michael Atanasov       : Ab Initio Ligand Field Theory
   Ute Becker             : Parallelization
   Martin Brehm           : Molecular dynamics
   Dmytro Bykov           : SCF Hessian
   Vijay G. Chilkuri      : MRCI spin determinant printing
   Dipayan Datta          : RHF DLPNO-CCSD density
   Achintya Kumar Dutta   : EOM-CC, STEOM-CC
   Dmitry Ganyushin       : Spin-Orbit,Spin-Spin,Magnetic field MRCI
   Yang Guo               : DLPNO-NEVPT2, CIM, IAO-localization
   Andreas Hansen         : Spin unrestricted coupled pair/coupled cluster methods
   Lee Huntington         : MR-EOM, pCC
   Robert Izsak           : Overlap fitted RIJCOSX, COSX-SCS-MP3, EOM
   Christian Kollmar      : KDIIS, OOCD, Brueckner-CCSD(T), CCSD density
   Simone Kossmann        : Meta GGA functionals, TD-DFT gradient, OOMP2, MP2 Hessian
   Martin Krupicka        : AUTO-CI
   Dagmar Lenk            : GEPOL surface
   Dimitrios Liakos       : Extrapolation schemes; parallel MDCI
   Dimitrios Manganas     : ROCIS; embedding schemes
   Dimitrios Pantazis     : SARC Basis sets
   Taras Petrenko         : DFT Hessian,TD-DFT gradient, ASA, ECA, R-Raman, ABS, FL, XAS/XES, NRVS
   Peter Pinski           : DLPNO-MP2
   Christoph Reimann      : Effective Core Potentials
   Marius Retegan         : Local ZFS, SOC
   Christoph Riplinger    : Optimizer, TS searches, QM/MM, DLPNO-CCSD(T), (RO)-DLPNO pert. Triples
   Tobias Risthaus        : Range-separated hybrids, TD-DFT gradient, RPA, STAB
   Michael Roemelt        : Restricted open shell CIS
   Masaaki Saitow         : Open-shell DLPNO
   Barbara Sandhoefer     : DKH picture change effects
   Kantharuban Sivalingam : CASSCF convergence, NEVPT2, FIC-MRCI
   Georgi Stoychev        : AutoAux
   Boris Wezisla          : Elementary symmetry handling
   Frank Wennmohs         : Technical directorship


 We gratefully acknowledge several colleagues who have allowed us to
 interface, adapt or use parts of their codes:
   Stefan Grimme, W. Hujo, H. Kruse,             : VdW corrections, initial TS optimization,
                  C. Bannwarth                     DFT functionals, gCP, sTDA/sTD-DF
   Ed Valeev                                     : LibInt (2-el integral package), F12 methods
   Garnet Chan, S. Sharma, J. Yang, R. Olivares  : DMRG
   Ulf Ekstrom                                   : XCFun DFT Library
   Mihaly Kallay                                 : mrcc  (arbitrary order and MRCC methods)
   Jiri Pittner, Ondrej Demel                    : Mk-CCSD
   Frank Weinhold                                : gennbo (NPA and NBO analysis)
   Christopher J. Cramer and Donald G. Truhlar   : smd solvation model


 Your calculation uses the libint2 library for the computation of 2-el integrals
 For citations please refer to: http://libint.valeyev.net

 This ORCA versions uses:
   CBLAS   interface :  Fast vector & matrix operations
   LAPACKE interface :  Fast linear algebra routines
   SCALAPACK package :  Parallel linear algebra routines


Your calculation utilizes the atom-pairwise dispersion correction
with the zero-damping scheme (D30)
Cite in your paper:
S.Grimme, J.Antony, S.Ehrlich and H.Krieg, J.Chem.Phys., 132, (2010), 154104 
   

XCFun DFT library Copyright 2009-2010 Ulf Ekstrom and contributors.
See http://admol.org/xcfun for more information. This is free soft-
ware; see the source code for copying conditions. There is ABSOLUTELY
NO WARRANTY; not even for MERCHANTABILITY or FITNESS FOR A PARTICULAR
PURPOSE. For details see the documentation. Scientific users of this 
library should cite U. Ekstrom, L. Visscher, R. Bast, A. J. Thorvald-
sen and K. Ruud; J.Chem.Theor.Comp. 2010, DOI: 10.1021/ct100117s
XCFun Version 0.99 
Your calculation utilizes the basis: def2-TZVP
   F. Weigend and R. Ahlrichs, Phys. Chem. Chem. Phys. 7, 3297 (2005).

Your calculation utilizes the auxiliary basis: def2/J
   F. Weigend, Phys. Chem. Chem. Phys. 8, 1057 (2006).

================================================================================
                                        WARNINGS
                       Please study these warnings very carefully!
================================================================================

Warning: TCutStore was < 0. Adjusted to Thresh (uncritical)
INFO   : Checking CIS options ...

WARNING: CIS/ROCIS methods need fully converged wavefunctions
  ===> : Setting SCFConvForced true
         You can overwrite this default with %scf ConvForced false 


INFO   : the flag for use of LIBINT has been found!

Your calculation utilizes the atom-pairwise dispersion correction
with the zero-damping scheme (D30)
Cite in your paper:
S.Grimme, J.Antony, S.Ehrlich and H.Krieg, J.Chem.Phys., 132, (2010), 154104 
   

XCFun DFT library Copyright 2009-2010 Ulf Ekstrom and contributors.
See http://admol.org/xcfun for more information. This is free soft-
ware; see the source code for copying conditions. There is ABSOLUTELY
NO WARRANTY; not even for MERCHANTABILITY or FITNESS FOR A PARTICULAR
PURPOSE. For details see the documentation. Scientific users of this 
library should cite U. Ekstrom, L. Visscher, R. Bast, A. J. Thorvald-
sen and K. Ruud; J.Chem.Theor.Comp. 2010, DOI: 10.1021/ct100117s
XCFun Version 0.99 
Your calculation utilizes the basis: def2-TZVP
   F. Weigend and R. Ahlrichs, Phys. Chem. Chem. Phys. 7, 3297 (2005).

Your calculation utilizes the auxiliary basis: def2/J
   F. Weigend, Phys. Chem. Chem. Phys. 8, 1057 (2006).

================================================================================
                                        WARNINGS
                       Please study these warnings very carefully!
================================================================================

INFO   : Checking CIS options ...

INFO   : the flag for use of LIBINT has been found!

================================================================================
                                       INPUT FILE
================================================================================
NAME = total.inp
|  1> # 
|  2> !wB97X-D3 def2-TZVP def2/J RIJCOSX Grid5 FinalGrid6 TightSCF
|  3> %pal 
|  4>  nprocs 24
|  5> end
|  6> %tddft
|  7>   Mode sTDDFT
|  8>   nroots 2
|  9>   Ethresh 10.0
| 10>   maxcore 5000
| 11>   triplets true
| 12> end
| 13> * xyz 0 1 
| 14> C -8.78368008 3.23570696 -1.39424295
| 15> C -7.58000059 2.57913016 -1.31836482
| 16> C -7.41906804 1.46451287 -0.43355374
| 17> C -8.53619729 1.05187089 0.38087415
| 18> C -9.77413003 1.76466562 0.26946533
| 19> C -9.88848060 2.82431865 -0.59605641
| 20> N -6.22711609 0.81997058 -0.37453147
| 21> C -6.12074390 -0.23136565 0.47094129
| 22> C -7.23400334 -0.62186834 1.31050859
| 23> N -8.42722298 0.01974668 1.25231172
| 24> C -7.07106781 -1.70704266 2.22994338
| 25> C -5.86658617 -2.36177884 2.31393138
| 26> C -4.77498628 -1.99010439 1.48837044
| 27> C -4.87090643 -0.95940722 0.56630940
| 28> H -3.84720622 -2.55045738 1.57068025
| 29> H -5.73975094 -3.18505448 3.01240697
| 30> H -7.91020989 -1.99971502 2.85520388
| 31> H -10.82902664 3.36316821 -0.67888096
| 32> H -6.73731229 2.89286767 -1.92961068
| 33> H -8.90435297 4.07974017 -2.06862066
| 34> S 1.04222879 -0.08009432 -2.09650909
| 35> C 0.01886955 -0.59084898 -0.76085283
| 36> C 0.78747739 -1.04573598 0.29121703
| 37> C 2.20294792 -0.98516418 0.04952676
| 38> C 2.49172664 -0.48455511 -1.21019908
| 39> C -1.42313695 -0.50498492 -0.84315853
| 40> C -2.35484050 -0.86189194 0.11081703
| 41> C -3.71447431 -0.62999224 -0.29071851
| 42> C -3.79651191 -0.10312717 -1.56789734
| 43> S -2.22163049 0.11439426 -2.28324456
| 44> H -2.07623892 -1.25289671 1.08367764
| 45> H 0.35948048 -1.40336954 1.22254144
| 46> H -4.70016877 0.13343947 -2.11370362
| 47> H 3.46550055 -0.37735271 -1.66735338
| 48> C 5.14326762 -1.73854054 2.29820022
| 49> C 4.29630811 -2.54968776 3.00544392
| 50> S 2.69446040 -2.53917981 2.31797204
| 51> C 3.18675846 -1.42456827 1.03934978
| 52> C 4.52608811 -1.08956786 1.17969879
| 53> C 5.29620265 -0.13609649 0.30118416
| 54> C 6.04787886 -0.86375711 -0.82837930
| 55> C 6.75632560 0.08392186 -1.81146146
| 56> C 8.22747588 0.36660155 -1.48136618
| 57> C 8.48011366 1.09095925 -0.15453773
| 58> C 7.85328622 2.47688970 -0.08711438
| 59> H 6.18623204 -1.59215320 2.55904294
| 60> H 6.76940918 2.42232401 -0.15879787
| 61> H 8.20972965 3.10424493 -0.90118694
| 62> H 8.10240344 2.96710098 0.85125698
| 63> H 6.01299264 0.41283347 0.91882976
| 64> H 4.62218737 0.61086331 -0.13122489
| 65> H 5.33068250 -1.48040140 -1.37995459
| 66> H 6.77010145 -1.55894427 -0.39028618
| 67> H 6.20303600 1.02559100 -1.88038966
| 68> H 6.72196158 -0.36011919 -2.81191774
| 69> H 8.11310332 0.47973421 0.67553999
| 70> H 9.56218067 1.18026351 -0.01147700
| 71> H 8.77508517 -0.58207848 -1.47033988
| 72> H 8.65573823 0.96045339 -2.29609191
| 73> H -10.61843563 1.45321535 0.87939420
| 74> H 4.53654597 -3.13652652 3.88248486
| 75> *
| 76> $new_job
| 77> # 
| 78> !wB97X-D3 def2-TZVP def2/J RIJCOSX Grid5 FinalGrid6 TightSCF
| 79> %pal 
| 80>  nprocs 24
| 81> end
| 82> %elprop
| 83>    dipole     true
| 84>    quadrupole true
| 85> end
| 86> %tddft
| 87>   Mode sTDDFT
| 88>   nroots 2
| 89>   Ethresh 10.0
| 90>   maxcore 5000
| 91> end
| 92> * xyz 0 1 
| 93> C -8.78368008 3.23570696 -1.39424295
| 94> C -7.58000059 2.57913016 -1.31836482
| 95> C -7.41906804 1.46451287 -0.43355374
| 96> C -8.53619729 1.05187089 0.38087415
| 97> C -9.77413003 1.76466562 0.26946533
| 98> C -9.88848060 2.82431865 -0.59605641
| 99> N -6.22711609 0.81997058 -0.37453147
|100> C -6.12074390 -0.23136565 0.47094129
|101> C -7.23400334 -0.62186834 1.31050859
|102> N -8.42722298 0.01974668 1.25231172
|103> C -7.07106781 -1.70704266 2.22994338
|104> C -5.86658617 -2.36177884 2.31393138
|105> C -4.77498628 -1.99010439 1.48837044
|106> C -4.87090643 -0.95940722 0.56630940
|107> H -3.84720622 -2.55045738 1.57068025
|108> H -5.73975094 -3.18505448 3.01240697
|109> H -7.91020989 -1.99971502 2.85520388
|110> H -10.82902664 3.36316821 -0.67888096
|111> H -6.73731229 2.89286767 -1.92961068
|112> H -8.90435297 4.07974017 -2.06862066
|113> S 1.04222879 -0.08009432 -2.09650909
|114> C 0.01886955 -0.59084898 -0.76085283
|115> C 0.78747739 -1.04573598 0.29121703
|116> C 2.20294792 -0.98516418 0.04952676
|117> C 2.49172664 -0.48455511 -1.21019908
|118> C -1.42313695 -0.50498492 -0.84315853
|119> C -2.35484050 -0.86189194 0.11081703
|120> C -3.71447431 -0.62999224 -0.29071851
|121> C -3.79651191 -0.10312717 -1.56789734
|122> S -2.22163049 0.11439426 -2.28324456
|123> H -2.07623892 -1.25289671 1.08367764
|124> H 0.35948048 -1.40336954 1.22254144
|125> H -4.70016877 0.13343947 -2.11370362
|126> H 3.46550055 -0.37735271 -1.66735338
|127> C 5.14326762 -1.73854054 2.29820022
|128> C 4.29630811 -2.54968776 3.00544392
|129> S 2.69446040 -2.53917981 2.31797204
|130> C 3.18675846 -1.42456827 1.03934978
|131> C 4.52608811 -1.08956786 1.17969879
|132> C 5.29620265 -0.13609649 0.30118416
|133> C 6.04787886 -0.86375711 -0.82837930
|134> C 6.75632560 0.08392186 -1.81146146
|135> C 8.22747588 0.36660155 -1.48136618
|136> C 8.48011366 1.09095925 -0.15453773
|137> C 7.85328622 2.47688970 -0.08711438
|138> H 6.18623204 -1.59215320 2.55904294
|139> H 6.76940918 2.42232401 -0.15879787
|140> H 8.20972965 3.10424493 -0.90118694
|141> H 8.10240344 2.96710098 0.85125698
|142> H 6.01299264 0.41283347 0.91882976
|143> H 4.62218737 0.61086331 -0.13122489
|144> H 5.33068250 -1.48040140 -1.37995459
|145> H 6.77010145 -1.55894427 -0.39028618
|146> H 6.20303600 1.02559100 -1.88038966
|147> H 6.72196158 -0.36011919 -2.81191774
|148> H 8.11310332 0.47973421 0.67553999
|149> H 9.56218067 1.18026351 -0.01147700
|150> H 8.77508517 -0.58207848 -1.47033988
|151> H 8.65573823 0.96045339 -2.29609191
|152> H -10.61843563 1.45321535 0.87939420
|153> H 4.53654597 -3.13652652 3.88248486
|154> *
|155> 
|156>                          ****END OF INPUT****
================================================================================


                 $$$$$$$$$$$$$$$$$$$$$$$$$$$$$$$$$$$$$$$$$$$$$$ 
                 $ THERE ARE  2 JOBS TO BE PROCESSED THIS RUN $
                 $$$$$$$$$$$$$$$$$$$$$$$$$$$$$$$$$$$$$$$$$$$$$$ 




                 $$$$$$$$$$$$$$$$  JOB NUMBER  1 $$$$$$$$$$$$$$


                       ****************************
                       * Single Point Calculation *
                       ****************************

---------------------------------
CARTESIAN COORDINATES (ANGSTROEM)
---------------------------------
  C     -8.783680    3.235707   -1.394243
  C     -7.580001    2.579130   -1.318365
  C     -7.419068    1.464513   -0.433554
  C     -8.536197    1.051871    0.380874
  C     -9.774130    1.764666    0.269465
  C     -9.888481    2.824319   -0.596056
  N     -6.227116    0.819971   -0.374531
  C     -6.120744   -0.231366    0.470941
  C     -7.234003   -0.621868    1.310509
  N     -8.427223    0.019747    1.252312
  C     -7.071068   -1.707043    2.229943
  C     -5.866586   -2.361779    2.313931
  C     -4.774986   -1.990104    1.488370
  C     -4.870906   -0.959407    0.566309
  H     -3.847206   -2.550457    1.570680
  H     -5.739751   -3.185054    3.012407
  H     -7.910210   -1.999715    2.855204
  H    -10.829027    3.363168   -0.678881
  H     -6.737312    2.892868   -1.929611
  H     -8.904353    4.079740   -2.068621
  S      1.042229   -0.080094   -2.096509
  C      0.018870   -0.590849   -0.760853
  C      0.787477   -1.045736    0.291217
  C      2.202948   -0.985164    0.049527
  C      2.491727   -0.484555   -1.210199
  C     -1.423137   -0.504985   -0.843159
  C     -2.354840   -0.861892    0.110817
  C     -3.714474   -0.629992   -0.290719
  C     -3.796512   -0.103127   -1.567897
  S     -2.221630    0.114394   -2.283245
  H     -2.076239   -1.252897    1.083678
  H      0.359480   -1.403370    1.222541
  H     -4.700169    0.133439   -2.113704
  H      3.465501   -0.377353   -1.667353
  C      5.143268   -1.738541    2.298200
  C      4.296308   -2.549688    3.005444
  S      2.694460   -2.539180    2.317972
  C      3.186758   -1.424568    1.039350
  C      4.526088   -1.089568    1.179699
  C      5.296203   -0.136096    0.301184
  C      6.047879   -0.863757   -0.828379
  C      6.756326    0.083922   -1.811461
  C      8.227476    0.366602   -1.481366
  C      8.480114    1.090959   -0.154538
  C      7.853286    2.476890   -0.087114
  H      6.186232   -1.592153    2.559043
  H      6.769409    2.422324   -0.158798
  H      8.209730    3.104245   -0.901187
  H      8.102403    2.967101    0.851257
  H      6.012993    0.412833    0.918830
  H      4.622187    0.610863   -0.131225
  H      5.330682   -1.480401   -1.379955
  H      6.770101   -1.558944   -0.390286
  H      6.203036    1.025591   -1.880390
  H      6.721962   -0.360119   -2.811918
  H      8.113103    0.479734    0.675540
  H      9.562181    1.180264   -0.011477
  H      8.775085   -0.582078   -1.470340
  H      8.655738    0.960453   -2.296092
  H    -10.618436    1.453215    0.879394
  H      4.536546   -3.136527    3.882485

----------------------------
CARTESIAN COORDINATES (A.U.)
----------------------------
  NO LB      ZA    FRAG     MASS         X           Y           Z
   0 C     6.0000    0    12.011  -16.598750    6.114600   -2.634737
   1 C     6.0000    0    12.011  -14.324125    4.873850   -2.491348
   2 C     6.0000    0    12.011  -14.020007    2.767528   -0.819298
   3 C     6.0000    0    12.011  -16.131075    1.987748    0.719748
   4 C     6.0000    0    12.011  -18.470429    3.334735    0.509216
   5 C     6.0000    0    12.011  -18.686520    5.337189   -1.126383
   6 N     7.0000    0    14.007  -11.767544    1.549520   -0.707762
   7 C     6.0000    0    12.011  -11.566530   -0.437218    0.889950
   8 C     6.0000    0    12.011  -13.670285   -1.175161    2.476502
   9 N     7.0000    0    14.007  -15.925144    0.037316    2.366526
  10 C     6.0000    0    12.011  -13.362382   -3.225843    4.213982
  11 C     6.0000    0    12.011  -11.086241   -4.463115    4.372697
  12 C     6.0000    0    12.011   -9.023416   -3.760752    2.812613
  13 C     6.0000    0    12.011   -9.204679   -1.813017    1.070170
  14 H     1.0000    0     1.008   -7.270166   -4.819666    2.968156
  15 H     1.0000    0     1.008  -10.846557   -6.018881    5.692624
  16 H     1.0000    0     1.008  -14.948130   -3.778914    5.395553
  17 H     1.0000    0     1.008  -20.463895    6.355467   -1.282899
  18 H     1.0000    0     1.008  -12.731675    5.466728   -3.646436
  19 H     1.0000    0     1.008  -16.826789    7.709592   -3.909127
  20 S    16.0000    0    32.060    1.969527   -0.151356   -3.961828
  21 C     6.0000    0    12.011    0.035658   -1.116543   -1.437803
  22 C     6.0000    0    12.011    1.488117   -1.976155    0.550320
  23 C     6.0000    0    12.011    4.162968   -1.861690    0.093592
  24 C     6.0000    0    12.011    4.708681   -0.915676   -2.286945
  25 C     6.0000    0    12.011   -2.689339   -0.954283   -1.593339
  26 C     6.0000    0    12.011   -4.450004   -1.628740    0.209414
  27 C     6.0000    0    12.011   -7.019339   -1.190513   -0.549378
  28 C     6.0000    0    12.011   -7.174368   -0.194882   -2.962897
  29 S    16.0000    0    32.060   -4.198273    0.216174   -4.314707
  30 H     1.0000    0     1.008   -3.923523   -2.367632    2.047854
  31 H     1.0000    0     1.008    0.679320   -2.651984    2.310269
  32 H     1.0000    0     1.008   -8.882032    0.252164   -3.994321
  33 H     1.0000    0     1.008    6.548847   -0.713093   -3.150841
  34 C     6.0000    0    12.011    9.719367   -3.285365    4.342969
  35 C     6.0000    0    12.011    8.118846   -4.818212    5.679466
  36 S    16.0000    0    32.060    5.091792   -4.798354    4.380332
  37 C     6.0000    0    12.011    6.022101   -2.692044    1.964086
  38 C     6.0000    0    12.011    8.553067   -2.058985    2.229308
  39 C     6.0000    0    12.011   10.008373   -0.257185    0.569156
  40 C     6.0000    0    12.011   11.428835   -1.632264   -1.565410
  41 C     6.0000    0    12.011   12.767605    0.158589   -3.423166
  42 C     6.0000    0    12.011   15.547676    0.692777   -2.799376
  43 C     6.0000    0    12.011   16.025092    2.061614   -0.292034
  44 C     6.0000    0    12.011   14.840560    4.680643   -0.164622
  45 H     1.0000    0     1.008   11.690284   -3.008734    4.835890
  46 H     1.0000    0     1.008   12.792329    4.577529   -0.300084
  47 H     1.0000    0     1.008   15.514141    5.866173   -1.702997
  48 H     1.0000    0     1.008   15.311324    5.607008    1.608643
  49 H     1.0000    0     1.008   11.362909    0.780142    1.736337
  50 H     1.0000    0     1.008    8.734668    1.154364   -0.247979
  51 H     1.0000    0     1.008   10.073530   -2.797553   -2.607736
  52 H     1.0000    0     1.008   12.793638   -2.945978   -0.737534
  53 H     1.0000    0     1.008   11.722039    1.938086   -3.553421
  54 H     1.0000    0     1.008   12.702666   -0.680527   -5.313754
  55 H     1.0000    0     1.008   15.331543    0.906566    1.276586
  56 H     1.0000    0     1.008   18.069903    2.230375   -0.021688
  57 H     1.0000    0     1.008   16.582508   -1.099969   -2.778540
  58 H     1.0000    0     1.008   16.356975    1.814994   -4.338985
  59 H     1.0000    0     1.008  -20.065935    2.746179    1.661814
  60 H     1.0000    0     1.008    8.572829   -5.927176    7.336833

--------------------------------
INTERNAL COORDINATES (ANGSTROEM)
--------------------------------
 C      0   0   0     0.000000000000     0.00000000     0.00000000
 C      1   0   0     1.373206065948     0.00000000     0.00000000
 C      2   1   0     1.432187709802   120.31457854     0.00000000
 C      3   2   1     1.442755680243   118.96860557   359.52765542
 C      4   3   2     1.432817406739   118.86908672     0.50315009
 C      5   4   3     1.372977960224   120.32631355   359.79231409
 N      3   2   1     1.356343556428   119.70060550   179.59941880
 C      7   3   2     1.353309683412   117.73810913   180.27133262
 C      8   7   3     1.448002825576   120.75112449   358.13286840
 N      4   3   2     1.355197116111   121.23517497   181.27513952
 C      9   8   7     1.431611548146   119.29437492   182.34463571
 C     11   9   8     1.373502628553   120.02746323     0.31958685
 C     12  11   9     1.418197123916   120.96173681   359.25728773
 C     13  12  11     1.386266169575   121.92354782   359.96356486
 H     13  12  11     1.086989520629   118.54113809   181.45039987
 H     12  11   9     1.087077782319   120.17342725   179.90065068
 H     11   9   8     1.086631139621   119.06632719   180.25674282
 H      6   5   4     1.087127227032   120.17440067   179.97735092
 H      2   1   3     1.087279309793   120.68586217   179.75127593
 H      1   2   3     1.087078332830   120.18646596   180.17242832
 S     14  13  12     6.544383975348   107.93968635   175.20297323
 C     21  14  13     1.758440246833    29.08264895   332.91617964
 C     22  21  14     1.380047529906   110.52819017   180.16067395
 C     23  22  21     1.437233436456   113.98012460     0.37256121
 C     24  23  22     1.385969618013   111.91756588   359.55929224
 C     22  21  14     1.446903456038   121.30248014     0.00000000
 C     26  22  21     1.380407003418   128.17090129   180.03110485
 C     27  26  22     1.436527882792   113.82294001   179.26181809
 C     28  27  26     1.384016883423   112.05498549     0.53255336
 S     29  28  27     1.743355587576   111.87629848   359.90381628
 H     27  26  22     1.084878489524   122.65517060     1.01053866
 H     23  22  21     1.085563574771   122.89061003   179.53234987
 H     29  28  27     1.081879841329   126.74854002   178.06034769
 H     25  24  23     1.081072632329   127.43413583   183.20727900
 C     24  23  22     3.777510848128   131.15353914   175.25272731
 C     35  24  23     1.369486719645    86.79895949    24.48888321
 S     36  35  24     1.743170699856   111.16598625   359.78271941
 C     24  23  22     1.463116107438   122.39842023   180.18167037
 C     38  24  23     1.387705671487   130.15737436   202.03888466
 C     39  38  24     1.507969500107   125.91685587     0.69411485
 C     40  39  38     1.539617066918   112.20479656   265.31696485
 C     41  40  39     1.538324655886   113.73704681   175.48714830
 C     42  41  40     1.533999298357   114.68750223    93.80009742
 C     43  42  41     1.532642704991   115.56066377   296.55057180
 C     44  43  42     1.522583908985   113.62044457   298.18784885
 H     35  24  23     1.085008276132   149.81587441   204.99953542
 H     45  44  43     1.087614534246   111.20377923    62.83688699
 H     45  44  43     1.087814614879   110.91086699   302.85230702
 H     45  44  43     1.087615418063   110.74306158   182.82985461
 H     40  39  38     1.093891255084   108.84380899   144.14264263
 H     40  39  38     1.095090465218   110.30358057    27.64238766
 H     41  40  39     1.094922873871   108.41928918    53.98167743
 H     41  40  39     1.093990968302   109.19873394   298.87480163
 H     42  41  40     1.094358829384   109.72505626   329.59346376
 H     42  41  40     1.095110089510   108.63758699   214.13907945
 H     44  43  42     1.094221942949   109.72099281    61.36602619
 H     44  43  42     1.095130420294   108.33083883   176.81556600
 H     43  42  41     1.095441149997   108.78363133    58.90883649
 H     43  42  41     1.095375124523   108.34913922   174.13066825
 H      5   4   3     1.087136809851   119.00291378   179.77203259
 H     36  35  24     1.082263724816   127.04091063   180.04110883

---------------------------
INTERNAL COORDINATES (A.U.)
---------------------------
 C      0   0   0     0.000000000000     0.00000000     0.00000000
 C      1   0   0     2.594983390082     0.00000000     0.00000000
 C      2   1   0     2.706442543893   120.31457854     0.00000000
 C      3   2   1     2.726413113819   118.96860557   359.52765542
 C      4   3   2     2.707632498651   118.86908672     0.50315009
 C      5   4   3     2.594552332733   120.32631355   359.79231409
 N      3   2   1     2.563117865157   119.70060550   179.59941880
 C      7   3   2     2.557384676033   117.73810913   180.27133262
 C      8   7   3     2.736328781482   120.75112449   358.13286840
 N      4   3   2     2.560951406930   121.23517497   181.27513952
 C      9   8   7     2.705353756156   119.29437492   182.34463571
 C     11   9   8     2.595543812186   120.02746323     0.31958685
 C     12  11   9     2.680004168117   120.96173681   359.25728773
 C     13  12  11     2.619663409217   121.92354782   359.96356486
 H     13  12  11     2.054112504432   118.54113809   181.45039987
 H     12  11   9     2.054279294854   120.17342725   179.90065068
 H     11   9   8     2.053435262475   119.06632719   180.25674282
 H      6   5   4     2.054372731820   120.17440067   179.97735092
 H      2   1   3     2.054660126589   120.68586217   179.75127593
 H      1   2   3     2.054280335169   120.18646596   180.17242832
 S     14  13  12    12.367093428631   107.93968635   175.20297323
 C     21  14  13     3.322970489379    29.08264895   332.91617964
 C     22  21  14     2.607911883316   110.52819017   180.16067395
 C     23  22  21     2.715977585416   113.98012460     0.37256121
 C     24  23  22     2.619103007980   111.91756588   359.55929224
 C     22  21  14     2.734251274136   121.30248014     0.00000000
 C     26  22  21     2.608591189807   128.17090129   180.03110485
 C     27  26  22     2.714644282218   113.82294001   179.26181809
 C     28  27  26     2.615412874393   112.05498549     0.53255336
 S     29  28  27     3.294464614560   111.87629848   359.90381628
 H     27  26  22     2.050123233782   122.65517060     1.01053866
 H     23  22  21     2.051417857278   122.89061003   179.53234987
 H     29  28  27     2.044456609921   126.74854002   178.06034769
 H     25  24  23     2.042931205979   127.43413583   183.20727900
 C     24  23  22     7.138460970878   131.15353914   175.25272731
 C     35  24  23     2.587954844170    86.79895949    24.48888321
 S     36  35  24     3.294115227404   111.16598625   359.78271941
 C     24  23  22     2.764888745188   122.39842023   180.18167037
 C     38  24  23     2.622383673600   130.15737436   202.03888466
 C     39  38  24     2.849649373508   125.91685587     0.69411485
 C     40  39  38     2.909454607587   112.20479656   265.31696485
 C     41  40  39     2.907012304683   113.73704681   175.48714830
 C     42  41  40     2.898838563523   114.68750223    93.80009742
 C     43  42  41     2.896274973585   115.56066377   296.55057180
 C     44  43  42     2.877266603897   113.62044457   298.18784885
 H     35  24  23     2.050368494928   149.81587441   204.99953542
 H     45  44  43     2.055293608997   111.20377923    62.83688699
 H     45  44  43     2.055671706598   110.91086699   302.85230702
 H     45  44  43     2.055295279169   110.74306158   182.82985461
 H     40  39  38     2.067154892400   108.84380899   144.14264263
 H     40  39  38     2.069421071130   110.30358057    27.64238766
 H     41  40  39     2.069104369382   108.41928918    53.98167743
 H     41  40  39     2.067343323074   109.19873394   298.87480163
 H     42  41  40     2.068038479775   109.72505626   329.59346376
 H     42  41  40     2.069458155668   108.63758699   214.13907945
 H     44  43  42     2.067779801900   109.72099281    61.36602619
 H     44  43  42     2.069496575281   108.33083883   176.81556600
 H     43  42  41     2.070083769322   108.78363133    58.90883649
 H     43  42  41     2.069958999258   108.34913922   174.13066825
 H      5   4   3     2.054390840724   119.00291378   179.77203259
 H     36  35  24     2.045182044579   127.04091063   180.04110883

---------------------
BASIS SET INFORMATION
---------------------
There are 4 groups of distinct atoms

 Group   1 Type C   : 11s6p2d1f contracted to 5s3p2d1f pattern {62111/411/11/1}
 Group   2 Type N   : 11s6p2d1f contracted to 5s3p2d1f pattern {62111/411/11/1}
 Group   3 Type H   : 5s1p contracted to 3s1p pattern {311/1}
 Group   4 Type S   : 14s9p3d1f contracted to 5s5p2d1f pattern {73211/51111/21/1}

Atom   0C    basis set group =>   1
Atom   1C    basis set group =>   1
Atom   2C    basis set group =>   1
Atom   3C    basis set group =>   1
Atom   4C    basis set group =>   1
Atom   5C    basis set group =>   1
Atom   6N    basis set group =>   2
Atom   7C    basis set group =>   1
Atom   8C    basis set group =>   1
Atom   9N    basis set group =>   2
Atom  10C    basis set group =>   1
Atom  11C    basis set group =>   1
Atom  12C    basis set group =>   1
Atom  13C    basis set group =>   1
Atom  14H    basis set group =>   3
Atom  15H    basis set group =>   3
Atom  16H    basis set group =>   3
Atom  17H    basis set group =>   3
Atom  18H    basis set group =>   3
Atom  19H    basis set group =>   3
Atom  20S    basis set group =>   4
Atom  21C    basis set group =>   1
Atom  22C    basis set group =>   1
Atom  23C    basis set group =>   1
Atom  24C    basis set group =>   1
Atom  25C    basis set group =>   1
Atom  26C    basis set group =>   1
Atom  27C    basis set group =>   1
Atom  28C    basis set group =>   1
Atom  29S    basis set group =>   4
Atom  30H    basis set group =>   3
Atom  31H    basis set group =>   3
Atom  32H    basis set group =>   3
Atom  33H    basis set group =>   3
Atom  34C    basis set group =>   1
Atom  35C    basis set group =>   1
Atom  36S    basis set group =>   4
Atom  37C    basis set group =>   1
Atom  38C    basis set group =>   1
Atom  39C    basis set group =>   1
Atom  40C    basis set group =>   1
Atom  41C    basis set group =>   1
Atom  42C    basis set group =>   1
Atom  43C    basis set group =>   1
Atom  44C    basis set group =>   1
Atom  45H    basis set group =>   3
Atom  46H    basis set group =>   3
Atom  47H    basis set group =>   3
Atom  48H    basis set group =>   3
Atom  49H    basis set group =>   3
Atom  50H    basis set group =>   3
Atom  51H    basis set group =>   3
Atom  52H    basis set group =>   3
Atom  53H    basis set group =>   3
Atom  54H    basis set group =>   3
Atom  55H    basis set group =>   3
Atom  56H    basis set group =>   3
Atom  57H    basis set group =>   3
Atom  58H    basis set group =>   3
Atom  59H    basis set group =>   3
Atom  60H    basis set group =>   3
-------------------------------
AUXILIARY BASIS SET INFORMATION
-------------------------------
There are 4 groups of distinct atoms

 Group   1 Type C   : 12s5p4d2f1g contracted to 6s4p3d1f1g pattern {711111/2111/211/2/1}
 Group   2 Type N   : 12s5p4d2f1g contracted to 6s4p3d1f1g pattern {711111/2111/211/2/1}
 Group   3 Type H   : 5s2p1d contracted to 3s1p1d pattern {311/2/1}
 Group   4 Type S   : 14s5p5d2f1g contracted to 8s4p3d1f1g pattern {71111111/2111/311/2/1}

Atom   0C    basis set group =>   1
Atom   1C    basis set group =>   1
Atom   2C    basis set group =>   1
Atom   3C    basis set group =>   1
Atom   4C    basis set group =>   1
Atom   5C    basis set group =>   1
Atom   6N    basis set group =>   2
Atom   7C    basis set group =>   1
Atom   8C    basis set group =>   1
Atom   9N    basis set group =>   2
Atom  10C    basis set group =>   1
Atom  11C    basis set group =>   1
Atom  12C    basis set group =>   1
Atom  13C    basis set group =>   1
Atom  14H    basis set group =>   3
Atom  15H    basis set group =>   3
Atom  16H    basis set group =>   3
Atom  17H    basis set group =>   3
Atom  18H    basis set group =>   3
Atom  19H    basis set group =>   3
Atom  20S    basis set group =>   4
Atom  21C    basis set group =>   1
Atom  22C    basis set group =>   1
Atom  23C    basis set group =>   1
Atom  24C    basis set group =>   1
Atom  25C    basis set group =>   1
Atom  26C    basis set group =>   1
Atom  27C    basis set group =>   1
Atom  28C    basis set group =>   1
Atom  29S    basis set group =>   4
Atom  30H    basis set group =>   3
Atom  31H    basis set group =>   3
Atom  32H    basis set group =>   3
Atom  33H    basis set group =>   3
Atom  34C    basis set group =>   1
Atom  35C    basis set group =>   1
Atom  36S    basis set group =>   4
Atom  37C    basis set group =>   1
Atom  38C    basis set group =>   1
Atom  39C    basis set group =>   1
Atom  40C    basis set group =>   1
Atom  41C    basis set group =>   1
Atom  42C    basis set group =>   1
Atom  43C    basis set group =>   1
Atom  44C    basis set group =>   1
Atom  45H    basis set group =>   3
Atom  46H    basis set group =>   3
Atom  47H    basis set group =>   3
Atom  48H    basis set group =>   3
Atom  49H    basis set group =>   3
Atom  50H    basis set group =>   3
Atom  51H    basis set group =>   3
Atom  52H    basis set group =>   3
Atom  53H    basis set group =>   3
Atom  54H    basis set group =>   3
Atom  55H    basis set group =>   3
Atom  56H    basis set group =>   3
Atom  57H    basis set group =>   3
Atom  58H    basis set group =>   3
Atom  59H    basis set group =>   3
Atom  60H    basis set group =>   3
-------------------------
ECP PARAMETER INFORMATION
-------------------------



--------------------------------------------------------------------------
[[9242,1],4]: A high-performance Open MPI point-to-point messaging module
was unable to find any relevant network interfaces:

Module: OpenFabrics (openib)
  Host: cx1-105-19-2

Another transport will be used instead, although this may result in
lower performance.
--------------------------------------------------------------------------


           ************************************************************
           *        Program running with 24 parallel MPI-processes    *
           *              working on a common directory               *
           ************************************************************
------------------------------------------------------------------------------
                           ORCA GTO INTEGRAL CALCULATION
                           -- RI-GTO INTEGRALS CHOSEN --
------------------------------------------------------------------------------

                         BASIS SET STATISTICS AND STARTUP INFO

Gaussian basis set:
 # of primitive gaussian shells          ...  877
 # of primitive gaussian functions       ... 1869
 # of contracted shells                  ...  495
 # of contracted basis functions         ... 1259
 Highest angular momentum                ...    3
 Maximum contraction depth               ...    7
Auxiliary gaussian basis set:
 # of primitive gaussian shells          ... 1057
 # of primitive gaussian functions       ... 2887
 # of contracted shells                  ...  661
 # of contracted aux-basis functions     ... 2007
 Highest angular momentum                ...    4
 Maximum contraction depth               ...    7
Ratio of auxiliary to basis functions    ...  1.59
Integral package used                  ... LIBINT
 One Electron integrals                  
   ECP integrals                         ... done
 Ordering auxiliary basis shells         ... done
 Integral threshhold             Thresh  ...  2.500e-11
 Primitive cut-off               TCut    ...  2.500e-12
 Pre-screening matrix                    ... done
 Shell pair data                         ... 
 Ordering of the shell pairs             ... done (   0.014 sec) 56684 of 122760 pairs
 Determination of significant pairs      ... done (   0.000 sec)
 Creation of shell pair data             ... done (   0.010 sec)
 Storage of shell pair data              ... done (   0.139 sec)
 Shell pair data done in (   0.163 sec)
 Computing two index integrals           ... done
 Cholesky decomposition of the V-matrix  ... done


Timings:
 Total evaluation time                   ...   5.765 sec (  0.096 min)
 One electron matrix time                ...   1.898 sec (  0.032 min) = 32.9%
 Schwartz matrix evaluation time         ...   2.170 sec (  0.036 min) = 37.6%
 Two index repulsion integral time       ...   0.834 sec (  0.014 min) = 14.5%
 Cholesky decomposition of V             ...   0.662 sec (  0.011 min) = 11.5%
 Three index repulsion integral time     ...   0.000 sec (  0.000 min) =  0.0%

--------------------------------------------------------------------------
[[9416,1],7]: A high-performance Open MPI point-to-point messaging module
was unable to find any relevant network interfaces:

Module: OpenFabrics (openib)
  Host: cx1-105-19-2

Another transport will be used instead, although this may result in
lower performance.
--------------------------------------------------------------------------


           ************************************************************
           *        Program running with 24 parallel MPI-processes    *
           *              working on a common directory               *
           ************************************************************
-------------------------------------------------------------------------------
                                 ORCA SCF
-------------------------------------------------------------------------------

------------
SCF SETTINGS
------------
Hamiltonian:
 Density Functional     Method          .... DFT(GTOs)
 Exchange Functional    Exchange        .... WB97X-D3
 Correlation Functional Correlation     .... WB97X-D3
 Gradients option       PostSCFGGA      .... off
 Hybrid DFT is turned on
   Fraction HF Exchange ScalHFX         ....  0.195728
   Scaling of DF-GGA-X  ScalDFX         ....  0.000000
   Scaling of DF-GGA-C  ScalDFC         ....  1.000000
   Scaling of DF-LDA-C  ScalLDAC        ....  1.000000
   Perturbative correction              ....  0.000000
 Long-range corrected/Screened/Range-Separated Hybrid DFT is turned on
   Amount of maximum screened exact exchange              ....  0.804272
   Range separation parameter mu (erf(mu*r12)/r12)        ....  0.250000
 RI-approximation to the Coulomb term is turned on
   Number of auxiliary basis functions  .... 2007
   RIJ-COSX (HFX calculated with COS-X)).... on


General Settings:
 Integral files         IntName         .... total
 Hartree-Fock type      HFTyp           .... RHF
 Total Charge           Charge          ....    0
 Multiplicity           Mult            ....    1
 Number of Electrons    NEL             ....  268
 Basis Dimension        Dim             .... 1259
 Nuclear Repulsion      ENuc            ....   3670.0988864523 Eh

Convergence Acceleration:
 DIIS                   CNVDIIS         .... on
   Start iteration      DIISMaxIt       ....    12
   Startup error        DIISStart       ....  0.200000
   # of expansion vecs  DIISMaxEq       ....     5
   Bias factor          DIISBfac        ....   1.050
   Max. coefficient     DIISMaxC        ....  10.000
 Newton-Raphson         CNVNR           .... off
 SOSCF                  CNVSOSCF        .... on
   Start iteration      SOSCFMaxIt      ....   150
   Startup grad/error   SOSCFStart      ....  0.003300
 Level Shifting         CNVShift        .... on
   Level shift para.    LevelShift      ....    0.2500
   Turn off err/grad.   ShiftErr        ....    0.0010
 Zerner damping         CNVZerner       .... off
 Static damping         CNVDamp         .... on
   Fraction old density DampFac         ....    0.7000
   Max. Damping (<1)    DampMax         ....    0.9800
   Min. Damping (>=0)   DampMin         ....    0.0000
   Turn off err/grad.   DampErr         ....    0.1000
 Fernandez-Rico         CNVRico         .... off

SCF Procedure:
 Maximum # iterations   MaxIter         ....   125
 SCF integral mode      SCFMode         .... Direct
   Integral package                     .... LIBINT
 Reset frequeny         DirectResetFreq ....    20
 Integral Threshold     Thresh          ....  2.500e-11 Eh
 Primitive CutOff       TCut            ....  2.500e-12 Eh

Convergence Tolerance:
 Convergence Check Mode ConvCheckMode   .... Total+1el-Energy
 Convergence forced     ConvForced      .... 1
 Energy Change          TolE            ....  1.000e-08 Eh
 1-El. energy change                    ....  1.000e-05 Eh
 Orbital Gradient       TolG            ....  1.000e-05
 Orbital Rotation angle TolX            ....  1.000e-05
 DIIS Error             TolErr          ....  5.000e-07


Diagonalization of the overlap matrix:
Smallest eigenvalue                        ... 5.733e-06
Time for diagonalization                   ...    0.461 sec
Threshold for overlap eigenvalues          ... 1.000e-08
Number of eigenvalues below threshold      ... 0
Time for construction of square roots      ...    0.484 sec
Total time needed                          ...    0.962 sec

-------------------
DFT GRID GENERATION
-------------------

General Integration Accuracy     IntAcc      ...  5.010
Radial Grid Type                 RadialGrid  ... Gauss-Chebyshev
Angular Grid (max. acc.)         AngularGrid ... Lebedev-434
Angular grid pruning method      GridPruning ... 3 (G Style)
Weight generation scheme         WeightScheme... Becke
Basis function cutoff            BFCut       ...    1.0000e-11
Integration weight cutoff        WCut        ...    1.0000e-14
Grids for H and He will be reduced by one unit

# of grid points (after initial pruning)     ... 551332 (   0.0 sec)
# of grid points (after weights+screening)   ... 478502 (   1.9 sec)
nearest neighbour list constructed           ...    0.0 sec
Grid point re-assignment to atoms done       ...    0.2 sec
Grid point division into batches done        ...    3.9 sec
Reduced shell lists constructed in    4.6 sec

Total number of grid points                  ...   478502
Total number of batches                      ...     7509
Average number of points per batch           ...       63
Average number of grid points per atom       ...     7844
Average number of shells per batch           ...   127.68 (25.79%)
Average number of basis functions per batch  ...   332.55 (26.41%)
Average number of large shells per batch     ...    87.44 (68.48%)
Average number of large basis fcns per batch ...   230.24 (69.23%)
Maximum spatial batch extension              ...   8.16, 13.49, 17.14 au
Average spatial batch extension              ...   0.05,  0.06,  0.06 au

Time for grid setup =    7.891 sec

------------------------------
INITIAL GUESS: MODEL POTENTIAL
------------------------------
Loading Hartree-Fock densities                     ... done
Calculating cut-offs                               ... done
Setting up the integral package                    ... done
Initializing the effective Hamiltonian             ... done
Starting the Coulomb interaction                   ... done (   0.4 sec)
Reading the grid                                   ... done
Mapping shells                                     ... done
Starting the XC term evaluation                    ... done (   2.3 sec)
  promolecular density results
     # of electrons  =    267.987490228
     EX              =   -248.900250859
     EC              =     -9.258619733
     EX+EC           =   -258.158870592
Transforming the Hamiltonian                       ... done (   0.2 sec)
Diagonalizing the Hamiltonian                      ... done (   0.4 sec)
Back transforming the eigenvectors                 ... done (   0.1 sec)
Now organizing SCF variables                       ... done
                      ------------------
                      INITIAL GUESS DONE (  11.7 sec)
                      ------------------
--------------------
COSX GRID GENERATION
--------------------

General Integration Accuracy     IntAcc      ...  3.340
Radial Grid Type                 RadialGrid  ... Gauss-Chebyshev
Angular Grid (max. acc.)         AngularGrid ... Lebedev-50
Angular grid pruning method      GridPruning ... 3 (G Style)
Weight generation scheme         WeightScheme... Becke
Basis function cutoff            BFCut       ...    1.0000e-11
Integration weight cutoff        WCut        ...    1.0000e-14
Grids for H and He will be reduced by one unit

# of grid points (after initial pruning)     ...  28970 (   0.0 sec)
# of grid points (after weights+screening)   ...  26113 (   0.1 sec)
nearest neighbour list constructed           ...    0.0 sec
Grid point re-assignment to atoms done       ...    0.0 sec
Grid point division into batches done        ...    0.0 sec
Reduced shell lists constructed in    0.1 sec

Total number of grid points                  ...    26113
Total number of batches                      ...      443
Average number of points per batch           ...       58
Average number of grid points per atom       ...      428
Average number of shells per batch           ...   135.25 (27.32%)
Average number of basis functions per batch  ...   352.65 (28.01%)
Average number of large shells per batch     ...    97.35 (71.98%)
Average number of large basis fcns per batch ...   259.05 (73.46%)
Maximum spatial batch extension              ...   7.64, 14.83, 16.58 au
Average spatial batch extension              ...   0.13,  0.18,  0.19 au

Overlap Fitting                  UseSFitting ... on
Constructing numerical overlap ... done (      0.1 sec)
Inverting numerical overlap    ... done (      0.2 sec)
Obtaining analytic overlap     ... done (      0.0 sec)
Final contraction and storage  ... done (      0.6 sec)


General Integration Accuracy     IntAcc      ...  3.670
Radial Grid Type                 RadialGrid  ... Gauss-Chebyshev
Angular Grid (max. acc.)         AngularGrid ... Lebedev-50
Angular grid pruning method      GridPruning ... 3 (G Style)
Weight generation scheme         WeightScheme... Becke
Basis function cutoff            BFCut       ...    1.0000e-11
Integration weight cutoff        WCut        ...    1.0000e-14
Grids for H and He will be reduced by one unit

# of grid points (after initial pruning)     ...  36538 (   0.0 sec)
# of grid points (after weights+screening)   ...  32820 (   0.1 sec)
nearest neighbour list constructed           ...    0.0 sec
Grid point re-assignment to atoms done       ...    0.0 sec
Grid point division into batches done        ...    0.0 sec
Reduced shell lists constructed in    0.1 sec

Total number of grid points                  ...    32820
Total number of batches                      ...      544
Average number of points per batch           ...       60
Average number of grid points per atom       ...      538
Average number of shells per batch           ...   136.54 (27.58%)
Average number of basis functions per batch  ...   356.88 (28.35%)
Average number of large shells per batch     ...    97.38 (71.32%)
Average number of large basis fcns per batch ...   259.46 (72.70%)
Maximum spatial batch extension              ...   9.87, 15.48, 16.43 au
Average spatial batch extension              ...   0.12,  0.18,  0.17 au

Overlap Fitting                  UseSFitting ... on
Constructing numerical overlap ... done (      0.1 sec)
Inverting numerical overlap    ... done (      0.2 sec)
Obtaining analytic overlap     ... done (      0.0 sec)
Final contraction and storage  ... done (      0.6 sec)


General Integration Accuracy     IntAcc      ...  4.010
Radial Grid Type                 RadialGrid  ... Gauss-Chebyshev
Angular Grid (max. acc.)         AngularGrid ... Lebedev-110
Angular grid pruning method      GridPruning ... 3 (G Style)
Weight generation scheme         WeightScheme... Becke
Basis function cutoff            BFCut       ...    1.0000e-11
Integration weight cutoff        WCut        ...    1.0000e-14
Grids for H and He will be reduced by one unit

# of grid points (after initial pruning)     ...  69240 (   0.0 sec)
# of grid points (after weights+screening)   ...  61875 (   0.2 sec)
nearest neighbour list constructed           ...    0.0 sec
Grid point re-assignment to atoms done       ...    0.0 sec
Grid point division into batches done        ...    0.1 sec
Reduced shell lists constructed in    0.2 sec

Total number of grid points                  ...    61875
Total number of batches                      ...      996
Average number of points per batch           ...       62
Average number of grid points per atom       ...     1014
Average number of shells per batch           ...   135.88 (27.45%)
Average number of basis functions per batch  ...   354.53 (28.16%)
Average number of large shells per batch     ...    95.86 (70.55%)
Average number of large basis fcns per batch ...   255.67 (72.12%)
Maximum spatial batch extension              ...  10.65, 19.29, 19.42 au
Average spatial batch extension              ...   0.11,  0.14,  0.15 au

Overlap Fitting                  UseSFitting ... on
Constructing numerical overlap ... done (      0.2 sec)
Inverting numerical overlap    ... done (      0.2 sec)
Obtaining analytic overlap     ... done (      0.0 sec)
Final contraction and storage  ... done (      0.6 sec)

Time for X-Grid setup             =    4.274 sec
--------------
SCF ITERATIONS
--------------
ITER       Energy         Delta-E        Max-DP      RMS-DP      [F,P]     Damp
               ***  Starting incremental Fock matrix formation  ***
  0  -2462.1581520475   0.000000000000 0.05758659  0.00056621  0.1879009 0.7000
  1  -2462.5087780457  -0.350625998271 0.07314374  0.00050004  0.1119405 0.7000
                               ***Turning on DIIS***
  2  -2462.6814803330  -0.172702287250 0.18414193  0.00114253  0.0569904 0.0000
  3  -2462.9524129662  -0.270932633255 0.02757785  0.00033540  0.0427797 0.0000
  4  -2463.0044461300  -0.052033163750 0.01646202  0.00014767  0.0073031 0.0000
                      *** Initiating the SOSCF procedure ***
                           *** Shutting down DIIS ***
                      *** Re-Reading the Fockian *** 
                      *** Removing any level shift *** 
ITER      Energy       Delta-E        Grad      Rot      Max-DP    RMS-DP
  5  -2463.00630317  -0.0018570351  0.001972  0.001972  0.006670  0.000060
               *** Restarting incremental Fock matrix formation ***
  6  -2463.00678188  -0.0004787118  0.001384  0.005935  0.029356  0.000179
  7  -2463.00699240  -0.0002105238  0.000786  0.007136  0.017504  0.000116
  8  -2463.00703804  -0.0000456415  0.000571  0.001796  0.017064  0.000097
  9  -2463.00706713  -0.0000290899  0.000211  0.000568  0.002138  0.000014
 10  -2463.00706818  -0.0000010445  0.000140  0.000261  0.001526  0.000010
 11  -2463.00706930  -0.0000011211  0.000029  0.000135  0.000161  0.000001
 12  -2463.00706934  -0.0000000417  0.000019  0.000037  0.000452  0.000002
 13  -2463.00706944  -0.0000001014  0.000006  0.000030  0.000274  0.000002
 14  -2463.00706943   0.0000000066  0.000003  0.000010  0.000261  0.000001
                  ***Gradient check signals convergence***
              ***Rediagonalizing the Fockian in SOSCF/NRSCF***

               *****************************************************
               *                     SUCCESS                       *
               *           SCF CONVERGED AFTER  15 CYCLES          *
               *****************************************************

Old exchange energy                            =    -78.236883372 Eh
New exchange energy                            =    -78.237842518 Eh
Exchange energy change after final integration =     -0.000959146 Eh
Total energy after final integration           =  -2463.008028533 Eh
Final COS-X integration done in                =    41.344 sec

----------------
TOTAL SCF ENERGY
----------------

Total Energy       :        -2463.00802853 Eh          -67021.85578 eV

Components:
Nuclear Repulsion  :         3670.09888645 Eh           99868.46792 eV
Electronic Energy  :        -6133.10691499 Eh         -166890.32370 eV
One Electron Energy:       -10669.06851368 Eh         -290320.11385 eV
Two Electron Energy:         4535.96159869 Eh          123429.79015 eV

Virial components:
Potential Energy   :        -4916.85669345 Eh         -133794.47261 eV
Kinetic Energy     :         2453.84866491 Eh           66772.61683 eV
Virial Ratio       :            2.00373265


DFT components:
N(Alpha)           :      134.000048959169 electrons
N(Beta)            :      134.000048959169 electrons
N(Total)           :      268.000097918339 electrons
E(XC)              :     -185.005861480964 Eh       

---------------
SCF CONVERGENCE
---------------

  Last Energy change         ...    4.7634e-08  Tolerance :   1.0000e-08
  Last MAX-Density change    ...    2.5387e-14  Tolerance :   1.0000e-07
  Last RMS-Density change    ...    1.2691e-16  Tolerance :   5.0000e-09
  Last Orbital Gradient      ...    1.0389e-06  Tolerance :   1.0000e-05
  Last Orbital Rotation      ...    5.7508e-06  Tolerance :   1.0000e-05

             **** THE GBW FILE WAS UPDATED (total.gbw) ****
             **** DENSITY FILE WAS UPDATED (total.scfp.tmp) ****
             **** ENERGY FILE WAS UPDATED (total.en.tmp) ****
----------------
ORBITAL ENERGIES
----------------

  NO   OCC          E(Eh)            E(eV) 
   0   2.0000     -88.983599     -2421.3668 
   1   2.0000     -88.981741     -2421.3163 
   2   2.0000     -88.976456     -2421.1725 
   3   2.0000     -14.445827      -393.0909 
   4   2.0000     -14.445567      -393.0839 
   5   2.0000     -10.341098      -281.3956 
   6   2.0000     -10.338429      -281.3229 
   7   2.0000     -10.338212      -281.3171 
   8   2.0000     -10.337428      -281.2957 
   9   2.0000     -10.331102      -281.1236 
  10   2.0000     -10.328334      -281.0483 
  11   2.0000     -10.319117      -280.7974 
  12   2.0000     -10.314741      -280.6784 
  13   2.0000     -10.314562      -280.6735 
  14   2.0000     -10.311458      -280.5890 
  15   2.0000     -10.310350      -280.5589 
  16   2.0000     -10.309217      -280.5281 
  17   2.0000     -10.302376      -280.3419 
  18   2.0000     -10.301867      -280.3281 
  19   2.0000     -10.301393      -280.3151 
  20   2.0000     -10.301116      -280.3076 
  21   2.0000     -10.300286      -280.2850 
  22   2.0000     -10.298588      -280.2388 
  23   2.0000     -10.298038      -280.2239 
  24   2.0000     -10.295447      -280.1534 
  25   2.0000     -10.292986      -280.0864 
  26   2.0000     -10.291642      -280.0498 
  27   2.0000     -10.291369      -280.0424 
  28   2.0000     -10.284406      -279.8529 
  29   2.0000     -10.282305      -279.7957 
  30   2.0000     -10.276729      -279.6440 
  31   2.0000     -10.272500      -279.5289 
  32   2.0000     -10.271802      -279.5099 
  33   2.0000     -10.270952      -279.4868 
  34   2.0000     -10.261702      -279.2351 
  35   2.0000      -8.079972      -219.8672 
  36   2.0000      -8.078206      -219.8192 
  37   2.0000      -8.072947      -219.6761 
  38   2.0000      -6.033308      -164.1747 
  39   2.0000      -6.031494      -164.1253 
  40   2.0000      -6.029097      -164.0601 
  41   2.0000      -6.027263      -164.0102 
  42   2.0000      -6.027018      -164.0035 
  43   2.0000      -6.026176      -163.9806 
  44   2.0000      -6.025370      -163.9587 
  45   2.0000      -6.022093      -163.8695 
  46   2.0000      -6.020073      -163.8145 
  47   2.0000      -1.100799       -29.9543 
  48   2.0000      -1.030889       -28.0519 
  49   2.0000      -1.017307       -27.6823 
  50   2.0000      -1.003581       -27.3088 
  51   2.0000      -0.992421       -27.0051 
  52   2.0000      -0.983417       -26.7601 
  53   2.0000      -0.961172       -26.1548 
  54   2.0000      -0.934960       -25.4416 
  55   2.0000      -0.908499       -24.7215 
  56   2.0000      -0.899578       -24.4788 
  57   2.0000      -0.888560       -24.1789 
  58   2.0000      -0.880687       -23.9647 
  59   2.0000      -0.871621       -23.7180 
  60   2.0000      -0.869176       -23.6515 
  61   2.0000      -0.857281       -23.3278 
  62   2.0000      -0.837317       -22.7846 
  63   2.0000      -0.828405       -22.5420 
  64   2.0000      -0.815517       -22.1914 
  65   2.0000      -0.804247       -21.8847 
  66   2.0000      -0.798638       -21.7321 
  67   2.0000      -0.762661       -20.7531 
  68   2.0000      -0.761628       -20.7250 
  69   2.0000      -0.732122       -19.9220 
  70   2.0000      -0.721258       -19.6264 
  71   2.0000      -0.717225       -19.5167 
  72   2.0000      -0.712672       -19.3928 
  73   2.0000      -0.694808       -18.9067 
  74   2.0000      -0.677390       -18.4327 
  75   2.0000      -0.667606       -18.1665 
  76   2.0000      -0.666701       -18.1419 
  77   2.0000      -0.665671       -18.1138 
  78   2.0000      -0.655249       -17.8302 
  79   2.0000      -0.639435       -17.3999 
  80   2.0000      -0.632804       -17.2195 
  81   2.0000      -0.605363       -16.4728 
  82   2.0000      -0.602235       -16.3876 
  83   2.0000      -0.598147       -16.2764 
  84   2.0000      -0.588819       -16.0226 
  85   2.0000      -0.584512       -15.9054 
  86   2.0000      -0.580824       -15.8050 
  87   2.0000      -0.571243       -15.5443 
  88   2.0000      -0.562821       -15.3151 
  89   2.0000      -0.554208       -15.0808 
  90   2.0000      -0.546682       -14.8760 
  91   2.0000      -0.541687       -14.7401 
  92   2.0000      -0.537275       -14.6200 
  93   2.0000      -0.536195       -14.5906 
  94   2.0000      -0.524480       -14.2718 
  95   2.0000      -0.518413       -14.1067 
  96   2.0000      -0.515609       -14.0304 
  97   2.0000      -0.511264       -13.9122 
  98   2.0000      -0.508656       -13.8412 
  99   2.0000      -0.503953       -13.7133 
 100   2.0000      -0.500320       -13.6144 
 101   2.0000      -0.495741       -13.4898 
 102   2.0000      -0.493237       -13.4217 
 103   2.0000      -0.487905       -13.2766 
 104   2.0000      -0.485223       -13.2036 
 105   2.0000      -0.482474       -13.1288 
 106   2.0000      -0.476941       -12.9782 
 107   2.0000      -0.471452       -12.8289 
 108   2.0000      -0.468620       -12.7518 
 109   2.0000      -0.465058       -12.6549 
 110   2.0000      -0.459298       -12.4981 
 111   2.0000      -0.455690       -12.4000 
 112   2.0000      -0.450011       -12.2454 
 113   2.0000      -0.449270       -12.2253 
 114   2.0000      -0.446549       -12.1512 
 115   2.0000      -0.442609       -12.0440 
 116   2.0000      -0.437227       -11.8975 
 117   2.0000      -0.430625       -11.7179 
 118   2.0000      -0.429141       -11.6775 
 119   2.0000      -0.425706       -11.5840 
 120   2.0000      -0.414184       -11.2705 
 121   2.0000      -0.413841       -11.2612 
 122   2.0000      -0.406748       -11.0682 
 123   2.0000      -0.403007       -10.9664 
 124   2.0000      -0.386855       -10.5269 
 125   2.0000      -0.369356       -10.0507 
 126   2.0000      -0.361875        -9.8471 
 127   2.0000      -0.348992        -9.4965 
 128   2.0000      -0.339555        -9.2398 
 129   2.0000      -0.337377        -9.1805 
 130   2.0000      -0.332080        -9.0364 
 131   2.0000      -0.308183        -8.3861 
 132   2.0000      -0.297967        -8.1081 
 133   2.0000      -0.276369        -7.5204 
 134   0.0000      -0.042076        -1.1449 
 135   0.0000       0.008135         0.2214 
 136   0.0000       0.030260         0.8234 
 137   0.0000       0.034378         0.9355 
 138   0.0000       0.044130         1.2008 
 139   0.0000       0.067059         1.8248 
 140   0.0000       0.073844         2.0094 
 141   0.0000       0.095617         2.6019 
 142   0.0000       0.102280         2.7832 
 143   0.0000       0.112670         3.0659 
 144   0.0000       0.113233         3.0812 
 145   0.0000       0.120246         3.2721 
 146   0.0000       0.120894         3.2897 
 147   0.0000       0.123812         3.3691 
 148   0.0000       0.129091         3.5128 
 149   0.0000       0.129383         3.5207 
 150   0.0000       0.134796         3.6680 
 151   0.0000       0.138305         3.7635 
 152   0.0000       0.141788         3.8582 
 153   0.0000       0.148412         4.0385 
 154   0.0000       0.149617         4.0713 
 155   0.0000       0.155142         4.2216 
 156   0.0000       0.155585         4.2337 
 157   0.0000       0.158810         4.3214 
 158   0.0000       0.161618         4.3978 
 159   0.0000       0.168524         4.5858 
 160   0.0000       0.171701         4.6722 
 161   0.0000       0.172128         4.6839 
 162   0.0000       0.175695         4.7809 
 163   0.0000       0.176495         4.8027 
 164   0.0000       0.179297         4.8789 
 165   0.0000       0.181930         4.9506 
 166   0.0000       0.185638         5.0515 
 167   0.0000       0.186754         5.0818 
 168   0.0000       0.189307         5.1513 
 169   0.0000       0.196619         5.3503 
 170   0.0000       0.199137         5.4188 
 171   0.0000       0.202100         5.4994 
 172   0.0000       0.204075         5.5532 
 173   0.0000       0.207674         5.6511 
 174   0.0000       0.208373         5.6701 
 175   0.0000       0.213655         5.8138 
 176   0.0000       0.217648         5.9225 
 177   0.0000       0.221820         6.0360 
 178   0.0000       0.226415         6.1611 
 179   0.0000       0.228630         6.2213 
 180   0.0000       0.235511         6.4086 
 181   0.0000       0.237051         6.4505 
 182   0.0000       0.241999         6.5851 
 183   0.0000       0.247651         6.7389 
 184   0.0000       0.250151         6.8070 
 185   0.0000       0.253732         6.9044 
 186   0.0000       0.255663         6.9569 
 187   0.0000       0.263480         7.1697 
 188   0.0000       0.264696         7.2027 
 189   0.0000       0.267759         7.2861 
 190   0.0000       0.272471         7.4143 
 191   0.0000       0.273399         7.4396 
 192   0.0000       0.276498         7.5239 
 193   0.0000       0.278430         7.5765 
 194   0.0000       0.280806         7.6411 
 195   0.0000       0.283297         7.7089 
 196   0.0000       0.286200         7.7879 
 197   0.0000       0.288093         7.8394 
 198   0.0000       0.293474         7.9858 
 199   0.0000       0.294698         8.0191 
 200   0.0000       0.297237         8.0882 
 201   0.0000       0.299737         8.1563 
 202   0.0000       0.300935         8.1889 
 203   0.0000       0.303438         8.2570 
 204   0.0000       0.307244         8.3605 
 205   0.0000       0.307373         8.3640 
 206   0.0000       0.314101         8.5471 
 207   0.0000       0.316559         8.6140 
 208   0.0000       0.318716         8.6727 
 209   0.0000       0.322981         8.7888 
 210   0.0000       0.324259         8.8235 
 211   0.0000       0.326736         8.8909 
 212   0.0000       0.330173         8.9845 
 213   0.0000       0.333791         9.0829 
 214   0.0000       0.334554         9.1037 
 215   0.0000       0.335654         9.1336 
 216   0.0000       0.338039         9.1985 
 217   0.0000       0.341720         9.2987 
 218   0.0000       0.342457         9.3187 
 219   0.0000       0.346004         9.4152 
 220   0.0000       0.348586         9.4855 
 221   0.0000       0.350342         9.5333 
 222   0.0000       0.355767         9.6809 
 223   0.0000       0.357955         9.7404 
 224   0.0000       0.358416         9.7530 
 225   0.0000       0.359868         9.7925 
 226   0.0000       0.361843         9.8463 
 227   0.0000       0.365278         9.9397 
 228   0.0000       0.368165        10.0183 
 229   0.0000       0.372535        10.1372 
 230   0.0000       0.374463        10.1897 
 231   0.0000       0.377529        10.2731 
 232   0.0000       0.380581        10.3561 
 233   0.0000       0.381121        10.3708 
 234   0.0000       0.384042        10.4503 
 235   0.0000       0.391530        10.6541 
 236   0.0000       0.393553        10.7091 
 237   0.0000       0.394368        10.7313 
 238   0.0000       0.399995        10.8844 
 239   0.0000       0.404334        11.0025 
 240   0.0000       0.405022        11.0212 
 241   0.0000       0.408649        11.1199 
 242   0.0000       0.410677        11.1751 
 243   0.0000       0.413387        11.2488 
 244   0.0000       0.418992        11.4014 
 245   0.0000       0.419895        11.4259 
 246   0.0000       0.423516        11.5245 
 247   0.0000       0.425357        11.5746 
 248   0.0000       0.426951        11.6179 
 249   0.0000       0.429815        11.6959 
 250   0.0000       0.434093        11.8123 
 251   0.0000       0.434749        11.8301 
 252   0.0000       0.436663        11.8822 
 253   0.0000       0.440699        11.9920 
 254   0.0000       0.445274        12.1165 
 255   0.0000       0.447495        12.1770 
 256   0.0000       0.452955        12.3255 
 257   0.0000       0.455977        12.4078 
 258   0.0000       0.457577        12.4513 
 259   0.0000       0.461752        12.5649 
 260   0.0000       0.462238        12.5781 
 261   0.0000       0.463789        12.6203 
 262   0.0000       0.467166        12.7122 
 263   0.0000       0.468597        12.7512 
 264   0.0000       0.473075        12.8730 
 265   0.0000       0.474412        12.9094 
 266   0.0000       0.478224        13.0131 
 267   0.0000       0.479691        13.0531 
 268   0.0000       0.483241        13.1497 
 269   0.0000       0.485836        13.2203 
 270   0.0000       0.488449        13.2914 
 271   0.0000       0.489655        13.3242 
 272   0.0000       0.492629        13.4051 
 273   0.0000       0.495424        13.4812 
 274   0.0000       0.497107        13.5270 
 275   0.0000       0.499104        13.5813 
 276   0.0000       0.501291        13.6408 
 277   0.0000       0.504674        13.7329 
 278   0.0000       0.506390        13.7796 
 279   0.0000       0.508489        13.8367 
 280   0.0000       0.510688        13.8965 
 281   0.0000       0.513937        13.9849 
 282   0.0000       0.514995        14.0137 
 283   0.0000       0.519438        14.1346 
 284   0.0000       0.521474        14.1900 
 285   0.0000       0.525557        14.3011 
 286   0.0000       0.526866        14.3368 
 287   0.0000       0.529971        14.4212 
 288   0.0000       0.530461        14.4346 
 289   0.0000       0.534526        14.5452 
 290   0.0000       0.536566        14.6007 
 291   0.0000       0.538824        14.6621 
 292   0.0000       0.543422        14.7873 
 293   0.0000       0.544398        14.8138 
 294   0.0000       0.547363        14.8945 
 295   0.0000       0.549624        14.9560 
 296   0.0000       0.552781        15.0419 
 297   0.0000       0.553369        15.0579 
 298   0.0000       0.558196        15.1893 
 299   0.0000       0.562086        15.2951 
 300   0.0000       0.565252        15.3813 
 301   0.0000       0.567415        15.4401 
 302   0.0000       0.569029        15.4841 
 303   0.0000       0.573086        15.5945 
 304   0.0000       0.574654        15.6371 
 305   0.0000       0.579890        15.7796 
 306   0.0000       0.581365        15.8197 
 307   0.0000       0.584632        15.9086 
 308   0.0000       0.587052        15.9745 
 309   0.0000       0.589298        16.0356 
 310   0.0000       0.590661        16.0727 
 311   0.0000       0.594453        16.1759 
 312   0.0000       0.600500        16.3404 
 313   0.0000       0.600907        16.3515 
 314   0.0000       0.602496        16.3948 
 315   0.0000       0.605410        16.4740 
 316   0.0000       0.607602        16.5337 
 317   0.0000       0.614757        16.7284 
 318   0.0000       0.621273        16.9057 
 319   0.0000       0.625656        17.0250 
 320   0.0000       0.627687        17.0802 
 321   0.0000       0.630656        17.1610 
 322   0.0000       0.632773        17.2186 
 323   0.0000       0.637859        17.3570 
 324   0.0000       0.640931        17.4406 
 325   0.0000       0.646140        17.5824 
 326   0.0000       0.646890        17.6028 
 327   0.0000       0.650637        17.7047 
 328   0.0000       0.655680        17.8420 
 329   0.0000       0.660489        17.9728 
 330   0.0000       0.666803        18.1446 
 331   0.0000       0.668154        18.1814 
 332   0.0000       0.674204        18.3460 
 333   0.0000       0.676494        18.4083 
 334   0.0000       0.678088        18.4517 
 335   0.0000       0.684856        18.6359 
 336   0.0000       0.690715        18.7953 
 337   0.0000       0.691699        18.8221 
 338   0.0000       0.697806        18.9883 
 339   0.0000       0.699214        19.0266 
 340   0.0000       0.703997        19.1567 
 341   0.0000       0.706310        19.2197 
 342   0.0000       0.711547        19.3622 
 343   0.0000       0.713142        19.4056 
 344   0.0000       0.715910        19.4809 
 345   0.0000       0.721053        19.6208 
 346   0.0000       0.724435        19.7129 
 347   0.0000       0.727089        19.7851 
 348   0.0000       0.729043        19.8383 
 349   0.0000       0.732238        19.9252 
 350   0.0000       0.732698        19.9377 
 351   0.0000       0.735253        20.0073 
 352   0.0000       0.738027        20.0827 
 353   0.0000       0.740723        20.1561 
 354   0.0000       0.750043        20.4097 
 355   0.0000       0.750895        20.4329 
 356   0.0000       0.753738        20.5103 
 357   0.0000       0.756286        20.5796 
 358   0.0000       0.758549        20.6412 
 359   0.0000       0.762025        20.7358 
 360   0.0000       0.762530        20.7495 
 361   0.0000       0.770493        20.9662 
 362   0.0000       0.773113        21.0375 
 363   0.0000       0.774770        21.0826 
 364   0.0000       0.778344        21.1798 
 365   0.0000       0.782253        21.2862 
 366   0.0000       0.786931        21.4135 
 367   0.0000       0.791947        21.5500 
 368   0.0000       0.792557        21.5666 
 369   0.0000       0.796630        21.6774 
 370   0.0000       0.799622        21.7588 
 371   0.0000       0.803462        21.8633 
 372   0.0000       0.807667        21.9777 
 373   0.0000       0.809569        22.0295 
 374   0.0000       0.814301        22.1583 
 375   0.0000       0.819278        22.2937 
 376   0.0000       0.823296        22.4030 
 377   0.0000       0.825290        22.4573 
 378   0.0000       0.826241        22.4832 
 379   0.0000       0.834152        22.6984 
 380   0.0000       0.835759        22.7422 
 381   0.0000       0.837242        22.7825 
 382   0.0000       0.840528        22.8719 
 383   0.0000       0.849283        23.1102 
 384   0.0000       0.850249        23.1364 
 385   0.0000       0.854361        23.2483 
 386   0.0000       0.858743        23.3676 
 387   0.0000       0.865645        23.5554 
 388   0.0000       0.868978        23.6461 
 389   0.0000       0.870144        23.6778 
 390   0.0000       0.876593        23.8533 
 391   0.0000       0.880542        23.9608 
 392   0.0000       0.886908        24.1340 
 393   0.0000       0.890072        24.2201 
 394   0.0000       0.895095        24.3568 
 395   0.0000       0.898385        24.4463 
 396   0.0000       0.901786        24.5389 
 397   0.0000       0.906008        24.6537 
 398   0.0000       0.906833        24.6762 
 399   0.0000       0.911628        24.8067 
 400   0.0000       0.917328        24.9618 
 401   0.0000       0.918693        24.9989 
 402   0.0000       0.926712        25.2171 
 403   0.0000       0.931077        25.3359 
 404   0.0000       0.934801        25.4372 
 405   0.0000       0.938454        25.5366 
 406   0.0000       0.941899        25.6304 
 407   0.0000       0.945953        25.7407 
 408   0.0000       0.949843        25.8465 
 409   0.0000       0.959025        26.0964 
 410   0.0000       0.961664        26.1682 
 411   0.0000       0.964893        26.2561 
 412   0.0000       0.968517        26.3547 
 413   0.0000       0.971708        26.4415 
 414   0.0000       0.977749        26.6059 
 415   0.0000       0.980385        26.6776 
 416   0.0000       0.983823        26.7712 
 417   0.0000       0.986537        26.8450 
 418   0.0000       0.989716        26.9316 
 419   0.0000       0.991773        26.9875 
 420   0.0000       1.000889        27.2356 
 421   0.0000       1.006889        27.3989 
 422   0.0000       1.008762        27.4498 
 423   0.0000       1.013787        27.5865 
 424   0.0000       1.022124        27.8134 
 425   0.0000       1.026587        27.9349 
 426   0.0000       1.032278        28.0897 
 427   0.0000       1.037179        28.2231 
 428   0.0000       1.042929        28.3795 
 429   0.0000       1.047176        28.4951 
 430   0.0000       1.049637        28.5621 
 431   0.0000       1.056076        28.7373 
 432   0.0000       1.061635        28.8886 
 433   0.0000       1.069340        29.0982 
 434   0.0000       1.076186        29.2845 
 435   0.0000       1.079732        29.3810 
 436   0.0000       1.081853        29.4387 
 437   0.0000       1.088939        29.6315 
 438   0.0000       1.091793        29.7092 
 439   0.0000       1.097815        29.8731 
 440   0.0000       1.100344        29.9419 
 441   0.0000       1.105893        30.0929 
 442   0.0000       1.109281        30.1851 
 443   0.0000       1.111741        30.2520 
 444   0.0000       1.118275        30.4298 
 445   0.0000       1.123927        30.5836 
 446   0.0000       1.127223        30.6733 
 447   0.0000       1.134434        30.8695 
 448   0.0000       1.141985        31.0750 
 449   0.0000       1.143912        31.1274 
 450   0.0000       1.145634        31.1743 
 451   0.0000       1.150522        31.3073 
 452   0.0000       1.156106        31.4593 
 453   0.0000       1.164061        31.6757 
 454   0.0000       1.176139        32.0044 
 455   0.0000       1.180617        32.1262 
 456   0.0000       1.186879        32.2966 
 457   0.0000       1.188775        32.3482 
 458   0.0000       1.191348        32.4182 
 459   0.0000       1.196349        32.5543 
 460   0.0000       1.201704        32.7000 
 461   0.0000       1.206923        32.8420 
 462   0.0000       1.207183        32.8491 
 463   0.0000       1.212813        33.0023 
 464   0.0000       1.216712        33.1084 
 465   0.0000       1.220888        33.2221 
 466   0.0000       1.225414        33.3452 
 467   0.0000       1.230557        33.4852 
 468   0.0000       1.232680        33.5429 
 469   0.0000       1.234872        33.6026 
 470   0.0000       1.239501        33.7285 
 471   0.0000       1.241025        33.7700 
 472   0.0000       1.246014        33.9058 
 473   0.0000       1.260984        34.3131 
 474   0.0000       1.265057        34.4240 
 475   0.0000       1.266026        34.4503 
 476   0.0000       1.271643        34.6032 
 477   0.0000       1.277124        34.7523 
 478   0.0000       1.278238        34.7826 
 479   0.0000       1.287270        35.0284 
 480   0.0000       1.290656        35.1205 
 481   0.0000       1.293018        35.1848 
 482   0.0000       1.295138        35.2425 
 483   0.0000       1.303664        35.4745 
 484   0.0000       1.308726        35.6122 
 485   0.0000       1.312072        35.7033 
 486   0.0000       1.313428        35.7402 
 487   0.0000       1.320692        35.9379 
 488   0.0000       1.321776        35.9674 
 489   0.0000       1.331761        36.2391 
 490   0.0000       1.340108        36.4662 
 491   0.0000       1.340455        36.4756 
 492   0.0000       1.341928        36.5157 
 493   0.0000       1.350484        36.7485 
 494   0.0000       1.361048        37.0360 
 495   0.0000       1.364518        37.1304 
 496   0.0000       1.366756        37.1913 
 497   0.0000       1.377076        37.4722 
 498   0.0000       1.381127        37.5824 
 499   0.0000       1.385023        37.6884 
 500   0.0000       1.397909        38.0390 
 501   0.0000       1.402449        38.1626 
 502   0.0000       1.403742        38.1977 
 503   0.0000       1.409994        38.3679 
 504   0.0000       1.420126        38.6436 
 505   0.0000       1.421928        38.6926 
 506   0.0000       1.425530        38.7907 
 507   0.0000       1.426245        38.8101 
 508   0.0000       1.432498        38.9802 
 509   0.0000       1.436996        39.1027 
 510   0.0000       1.443873        39.2898 
 511   0.0000       1.449315        39.4379 
 512   0.0000       1.454437        39.5772 
 513   0.0000       1.462399        39.7939 
 514   0.0000       1.466299        39.9000 
 515   0.0000       1.469734        39.9935 
 516   0.0000       1.474383        40.1200 
 517   0.0000       1.479676        40.2640 
 518   0.0000       1.482942        40.3529 
 519   0.0000       1.491606        40.5887 
 520   0.0000       1.493039        40.6276 
 521   0.0000       1.499942        40.8155 
 522   0.0000       1.506421        40.9918 
 523   0.0000       1.510249        41.0960 
 524   0.0000       1.516006        41.2526 
 525   0.0000       1.523790        41.4644 
 526   0.0000       1.527469        41.5646 
 527   0.0000       1.530391        41.6441 
 528   0.0000       1.536415        41.8080 
 529   0.0000       1.539827        41.9008 
 530   0.0000       1.546007        42.0690 
 531   0.0000       1.554748        42.3069 
 532   0.0000       1.559133        42.4262 
 533   0.0000       1.567824        42.6627 
 534   0.0000       1.569988        42.7215 
 535   0.0000       1.574536        42.8453 
 536   0.0000       1.577682        42.9309 
 537   0.0000       1.580927        43.0192 
 538   0.0000       1.586263        43.1644 
 539   0.0000       1.590059        43.2677 
 540   0.0000       1.592123        43.3239 
 541   0.0000       1.594698        43.3939 
 542   0.0000       1.597252        43.4634 
 543   0.0000       1.601630        43.5826 
 544   0.0000       1.604794        43.6687 
 545   0.0000       1.606975        43.7280 
 546   0.0000       1.609660        43.8011 
 547   0.0000       1.613404        43.9030 
 548   0.0000       1.617766        44.0217 
 549   0.0000       1.620760        44.1031 
 550   0.0000       1.623034        44.1650 
 551   0.0000       1.629392        44.3380 
 552   0.0000       1.633370        44.4463 
 553   0.0000       1.637937        44.5705 
 554   0.0000       1.641695        44.6728 
 555   0.0000       1.647596        44.8334 
 556   0.0000       1.650172        44.9035 
 557   0.0000       1.652037        44.9542 
 558   0.0000       1.658042        45.1176 
 559   0.0000       1.660275        45.1784 
 560   0.0000       1.668295        45.3966 
 561   0.0000       1.675499        45.5927 
 562   0.0000       1.675796        45.6007 
 563   0.0000       1.678625        45.6777 
 564   0.0000       1.679447        45.7001 
 565   0.0000       1.683630        45.8139 
 566   0.0000       1.685830        45.8738 
 567   0.0000       1.691703        46.0336 
 568   0.0000       1.693824        46.0913 
 569   0.0000       1.697483        46.1908 
 570   0.0000       1.699771        46.2531 
 571   0.0000       1.702016        46.3142 
 572   0.0000       1.705092        46.3979 
 573   0.0000       1.708197        46.4824 
 574   0.0000       1.712177        46.5907 
[...]
 141   8.781     141.2   0.022728   0.020829  75.400430  64.675200     0.04 (  82->  99)    0.04 (  82-> 111)    0.03 (  57->  87)
 142   8.795     141.0   0.025901   0.023952  14.643738  14.235548     0.07 (  79->  91)    0.02 (  81->  96)    0.02 (  41->  86)
 143   8.824     140.5   0.013122   0.011933  -17.378547  -17.660194     0.05 (  60->  87)    0.05 (  74->  86)    0.03 (  79->  89)
 144   8.842     140.2   0.120143   0.108986  -43.352761  -39.439460     0.03 (  84->  92)    0.02 (  83-> 115)    0.02 (  79->  89)
 145   8.853     140.0   0.014797   0.012237  -5.891801  -5.056756     0.16 (  74->  86)    0.03 (  78->  88)    0.03 (  60->  87)
 146   8.867     139.8   0.003344   0.002916  24.397461  26.658843     0.03 (  84->  92)    0.02 (  84-> 118)    0.02 (  64->  88)
 147   8.871     139.8   0.001291   0.001370  -1.175693  -1.338078     0.04 (  44->  86)    0.04 (  57->  87)    0.04 (  72->  89)
 148   8.882     139.6   0.011639   0.008716  -57.872773  -48.229753     0.06 (  81-> 113)    0.04 (  84-> 115)    0.04 (  83-> 115)
 149   8.888     139.5   0.008706   0.006711  -17.866669  -16.594737     0.41 (  74->  86)    0.06 (  71->  91)    0.03 (  75->  86)
 150   8.894     139.4   0.085262   0.071018  -47.933665  -46.735436     0.06 (  74->  86)    0.06 (  71->  91)    0.03 (  77->  92)
 151   8.909     139.2   0.001846   0.001756  -8.455023  -8.394646     0.10 (  79->  89)    0.05 (  79-> 100)    0.05 (  74->  86)
 152   8.930     138.8   0.014277   0.012370  -11.591626  -10.467283     0.06 (  78->  93)    0.03 (  85-> 112)    0.02 (  85->  97)
 153   8.934     138.8   0.032045   0.026120  11.975327  11.892069     0.11 (  79->  89)    0.10 (  80->  91)    0.03 (  81->  91)
 154   8.942     138.6   0.017442   0.013601  29.786368  26.086797     0.17 (  80->  91)    0.04 (  81->  91)    0.04 (  80-> 103)
 155   8.959     138.4   0.048195   0.041987  -9.902827  -11.029233     0.09 (  62->  88)    0.07 (  79->  89)    0.04 (  61->  88)
 156   8.969     138.2   0.023570   0.020882  -25.233451  -24.198670     0.08 (  66->  88)    0.08 (  62->  88)    0.07 (  61->  88)
 157   8.989     137.9   0.010357   0.008695   0.872014   1.746578     0.11 (  79->  89)    0.06 (  75->  95)    0.04 (  85->  97)
 158   8.996     137.8   0.011264   0.011346   0.712637   0.513263     0.08 (  75->  95)    0.03 (  74->  95)    0.03 (  85->  97)
 159   9.006     137.7   0.046180   0.037784   6.043315   5.542722     0.06 (  78->  93)    0.04 (  71->  91)    0.03 (  78-> 104)
 160   9.014     137.6   0.047208   0.037330  37.957487  32.979792     0.10 (  44->  86)    0.07 (  71->  91)    0.05 (  45->  86)
 161   9.021     137.4   0.012303   0.009849  15.566191  12.822769     0.12 (  75->  95)    0.04 (  75->  96)    0.03 (  75->  93)
 162   9.030     137.3   0.032192   0.025734  -30.365430  -27.064570     0.11 (  74->  95)    0.04 (  85->  97)    0.04 (  74->  96)
 163   9.045     137.1   0.004679   0.004326  -4.282605  -2.624068     0.04 (  73->  87)    0.04 (  66->  90)    0.03 (  75->  95)
 164   9.061     136.8   0.007595   0.007319  53.722694  52.137159     0.04 (  78->  94)    0.03 (  77->  94)    0.02 (  85->  97)
 165   9.076     136.6   0.006521   0.005907  13.006714  11.065970     0.09 (  43->  86)    0.06 (  41->  86)    0.02 (  73->  87)
 166   9.084     136.5   0.075990   0.069301  20.080249  18.947114     0.04 (  78->  94)    0.03 (  73->  87)    0.03 (  79-> 100)
 167   9.086     136.5   0.048599   0.042508   8.030399   6.991573     0.09 (  79-> 103)    0.08 (  41->  86)    0.05 (  79-> 108)
 168   9.101     136.2   0.029466   0.028017  -43.281388  -40.237941     0.06 (  72->  95)    0.04 (  66->  86)    0.04 (  68->  86)
 169   9.111     136.1   0.010985   0.010696  41.199642  39.073039     0.10 (  72->  95)    0.05 (  73->  95)    0.04 (  72->  96)
 170   9.127     135.8   0.116247   0.097527  -36.308829  -34.214895     0.17 (  72->  86)    0.07 (  73->  86)    0.04 (  71->  91)
 171   9.129     135.8   0.009300   0.007662   3.145667   2.790443     0.41 (  72->  86)    0.15 (  73->  86)    0.05 (  66->  86)
 172   9.140     135.7   0.010712   0.009372  -13.128427  -13.218483     0.05 (  69->  90)    0.03 (  79-> 103)    0.02 (  79-> 108)
 173   9.156     135.4   0.011507   0.009971  -21.151105  -19.882007     0.03 (  81->  98)    0.03 (  64->  90)    0.03 (  73->  87)
 174   9.160     135.3   0.012014   0.010455  38.270416  36.500233     0.05 (  72->  87)    0.05 (  74->  87)    0.03 (  84-> 120)
 175   9.167     135.3   0.021621   0.017956  -23.257593  -20.483862     0.07 (  83->  93)    0.07 (  84->  93)    0.03 (  78->  93)
 176   9.168     135.2   0.013816   0.011810  15.130832  13.888618     0.08 (  43->  86)    0.06 (  44->  86)    0.03 (  57->  86)
 177   9.189     134.9   0.011347   0.010691  -53.169132  -53.202344     0.05 (  82->  97)    0.03 (  74->  95)    0.03 (  85-> 122)
 178   9.195     134.8   0.003774   0.003033  -16.818067  -14.764144     0.05 (  43->  86)    0.05 (  80-> 108)    0.04 (  80->  99)
 179   9.203     134.7   0.016729   0.014479  -10.325449  -8.276841     0.04 (  80-> 108)    0.02 (  84-> 126)    0.02 (  60->  89)
 180   9.213     134.6   0.058428   0.049857  10.241534   9.788650     0.08 (  73->  87)    0.05 (  59->  89)    0.03 (  69->  90)
 181   9.225     134.4   0.064394   0.053937  50.436270  42.722842     0.03 (  81->  96)    0.03 (  71->  90)    0.03 (  79-> 103)
 182   9.237     134.2   0.017148   0.016535  21.563951  21.057217     0.03 (  60->  86)    0.03 (  53->  86)    0.02 (  85-> 100)
 183   9.241     134.2   0.010398   0.009307  -11.295808  -10.112414     0.07 (  80-> 108)    0.03 (  80-> 109)    0.02 (  80-> 107)
 184   9.256     133.9   0.040619   0.034083  14.583540  13.343226     0.06 (  77->  90)    0.06 (  76->  90)    0.05 (  41->  86)
 185   9.261     133.9   0.028856   0.027611  -7.385935  -7.628628     0.05 (  77->  90)    0.04 (  76->  90)    0.03 (  78->  90)
 186   9.276     133.7   0.122150   0.106277  -65.280705  -60.501507     0.11 (  70->  86)    0.04 (  70->  93)    0.03 (  69->  86)
 187   9.279     133.6   0.024223   0.020285  -12.248013  -11.101783     0.29 (  70->  86)    0.07 (  69->  86)    0.03 (  71->  86)
 188   9.292     133.4   0.045179   0.042610  25.127074  22.807434     0.09 (  70->  86)    0.06 (  56->  88)    0.05 (  55->  88)
 189   9.303     133.3   0.076793   0.067973  36.177579  34.029235     0.04 (  70->  86)    0.04 (  75->  89)    0.04 (  74->  87)
 190   9.307     133.2   0.006864   0.005297  -12.699058  -9.718580     0.04 (  85-> 114)    0.02 (  85-> 100)    0.02 (  76->  89)
 191   9.327     132.9   0.045682   0.038684   8.696056   6.375980     0.03 (  77->  89)    0.03 (  80->  98)    0.02 (  80->  94)
 192   9.342     132.7   0.023910   0.021958  -1.298407   0.327330     0.03 (  80->  98)    0.03 (  77->  88)    0.02 (  80-> 109)
 193   9.353     132.6   0.002163   0.001506  -6.713813  -5.026029     0.05 (  85-> 100)    0.05 (  85-> 101)    0.02 (  74->  87)
 194   9.366     132.4   0.018343   0.016590  -14.064890  -13.739295     0.10 (  75->  87)    0.05 (  75->  89)    0.04 (  74->  89)
 195   9.381     132.2   0.036776   0.031425  41.752523  36.872986     0.12 (  76->  88)    0.06 (  77->  88)    0.06 (  77->  89)
 196   9.390     132.0   0.038409   0.032800  20.778841  20.640093     0.04 (  76->  89)    0.02 (  70->  93)    0.02 (  77->  88)
 197   9.396     132.0   0.039766   0.034666   0.734355   1.234871     0.06 (  72->  87)    0.03 (  85-> 101)    0.02 (  85-> 100)
 198   9.406     131.8   0.012413   0.010036  13.685191  12.115651     0.06 (  76->  88)    0.05 (  64->  90)    0.04 (  77->  88)
 199   9.414     131.7   0.008588   0.007185  11.758433  10.709049     0.06 (  59->  92)    0.06 (  62->  92)    0.05 (  39->  86)
 200   9.423     131.6   0.172759   0.148011  11.325207   9.221280     0.03 (  70->  93)    0.03 (  75->  93)    0.03 (  85-> 100)
 201   9.425     131.5   0.021342   0.018110  18.539125  17.701305     0.03 (  77->  89)    0.03 (  59->  92)    0.03 (  62->  92)
 202   9.444     131.3   0.086371   0.075063  -50.972473  -47.509277     0.04 (  73->  87)    0.04 (  64->  90)    0.04 (  69->  92)
 203   9.473     130.9   0.066336   0.057270  32.364502  29.748370     0.05 (  84->  96)    0.04 (  83->  94)    0.04 (  64->  90)
 204   9.481     130.8   0.014970   0.012351  -28.059197  -25.726444     0.07 (  42->  86)    0.05 (  69->  92)    0.04 (  51->  87)
 205   9.482     130.8   0.005134   0.004623  -7.880333  -7.204256     0.03 (  83-> 125)    0.03 (  83-> 106)    0.03 (  85-> 108)
 206   9.489     130.7   0.006055   0.005809  10.372613  10.216915     0.03 (  75->  87)    0.02 (  72->  87)    0.02 (  77->  91)
 207   9.504     130.5   0.022873   0.019491   7.975454   7.856844     0.05 (  77->  91)    0.04 (  81->  91)    0.03 (  76->  91)
 208   9.536     130.0   0.004359   0.003070  -16.792816  -14.851460     0.05 (  79-> 107)    0.04 (  41->  86)    0.04 (  79->  98)
 209   9.546     129.9   0.025994   0.022267  21.691756  20.350180     0.07 (  77->  91)    0.06 (  76->  91)    0.05 (  81->  91)
 210   9.557     129.7   0.046390   0.040527  -15.882433  -14.353190     0.04 (  63->  90)    0.04 (  69->  87)    0.03 (  52->  86)
 211   9.564     129.6   0.070626   0.063299  16.972463  16.559673     0.06 (  84->  96)    0.04 (  66->  91)    0.04 (  70->  87)
 212   9.582     129.4   0.030313   0.027513  -0.100263   1.729721     0.07 (  57->  88)    0.04 (  56->  88)    0.03 (  76->  88)
 213   9.588     129.3   0.000856   0.000621  -8.395889  -8.495041     0.06 (  75->  97)    0.03 (  64->  90)    0.02 (  75->  94)
 214   9.596     129.2   0.001883   0.001600  -6.816108  -7.104238     0.05 (  57->  88)    0.03 (  80-> 112)    0.02 (  84->  96)
 215   9.600     129.2   0.005678   0.004199  -6.237277  -5.534432     0.04 (  74->  97)    0.03 (  75->  97)    0.03 (  83->  96)
 216   9.610     129.0   0.004905   0.003830  18.682107  16.252141     0.17 (  75->  97)    0.07 (  74->  97)    0.04 (  75->  94)
 217   9.616     128.9   0.003664   0.003038  16.547849  14.179391     0.07 (  75->  97)    0.06 (  74->  97)    0.03 (  63->  92)
 218   9.626     128.8   0.001021   0.001075   1.020515   0.227459     0.04 (  75->  97)    0.04 (  85-> 132)    0.03 (  74->  97)
 219   9.630     128.8   0.011443   0.010296  12.233986  12.621664     0.06 (  80-> 112)    0.04 (  80->  99)    0.03 (  80-> 107)
 220   9.646     128.5   0.029050   0.023520  52.581209  44.694483     0.07 (  68->  87)    0.04 (  85-> 132)    0.02 (  75->  97)
 221   9.655     128.4   0.010889   0.008713  -16.972381  -14.747326     0.11 (  74->  97)    0.07 (  75->  97)    0.04 (  69->  87)
 222   9.665     128.3   0.020060   0.016707  22.667508  21.149877     0.05 (  74->  97)    0.04 (  84->  95)    0.03 (  63->  92)
 223   9.674     128.2   0.008733   0.007106  -0.802608  -1.007950     0.05 (  63->  92)    0.05 (  55->  88)    0.05 (  41->  86)
 224   9.680     128.1   0.000784   0.000699  -1.611508  -2.222973     0.51 (  68->  86)    0.06 (  66->  86)    0.03 (  62->  86)
 225   9.688     128.0   0.007874   0.006880  -5.157502  -6.064763     0.06 (  68->  86)    0.03 (  85-> 102)    0.03 (  75->  97)
 226   9.698     127.8   0.001758   0.001386  -0.104726  -0.181363     0.05 (  74->  97)    0.03 (  75->  97)    0.03 (  72->  87)
 227   9.709     127.7   0.008906   0.008448  -16.090217  -16.333556     0.06 (  55->  88)    0.04 (  52->  88)    0.04 (  53->  88)
 228   9.714     127.6   0.020791   0.020031  -8.775909  -9.147410     0.04 (  74->  97)    0.03 (  72->  89)    0.02 (  47->  87)
 229   9.717     127.6   0.047055   0.039208  83.387222  74.493191     0.03 (  72->  87)    0.03 (  72->  89)    0.02 (  84->  95)
 230   9.727     127.5   0.035978   0.029783  23.337657  21.153987     0.03 (  82->  92)    0.03 (  85-> 132)    0.02 (  82->  99)
 231   9.732     127.4   0.021637   0.017820   1.107410   1.065369     0.03 (  69->  87)    0.03 (  75->  97)    0.02 (  63->  90)
 232   9.750     127.2   0.019632   0.017443  -12.634942  -12.465970     0.03 (  72->  87)    0.03 (  70->  87)    0.02 (  85-> 123)
 233   9.765     127.0   0.029119   0.025746   5.160797   5.023937     0.04 (  69->  87)    0.03 (  50->  87)    0.02 (  83->  96)
 234   9.767     126.9   0.109557   0.091056  -38.598193  -33.533646     0.06 (  70->  87)    0.04 (  70->  94)    0.02 (  75->  93)
 235   9.777     126.8   0.004694   0.004344  -1.382819  -2.189295     0.42 (  82->  92)    0.03 (  82->  90)    0.03 (  82->  91)
 236   9.785     126.7   0.012915   0.011245  34.370024  32.735610     0.11 (  82->  92)    0.02 (  85-> 109)    0.02 (  84-> 100)
 237   9.796     126.6   0.009486   0.008827  -20.916503  -20.627602     0.04 (  82->  92)    0.04 (  74->  89)    0.03 (  74->  99)
 238   9.821     126.2   0.020317   0.018011   2.042941  -0.096614     0.07 (  68->  93)    0.04 (  68->  95)    0.03 (  67->  87)
 239   9.827     126.2   0.005846   0.005118  -7.148707  -5.132140     0.05 (  72->  97)    0.04 (  68->  93)    0.03 (  67->  87)
 240   9.832     126.1   0.011265   0.010804  -12.858081  -14.057946     0.05 (  74->  89)    0.04 (  49->  87)    0.04 (  69->  87)
 241   9.842     126.0   0.020779   0.018406  26.676649  25.229875     0.12 (  67->  86)    0.04 (  67->  87)    0.02 (  82->  92)
 242   9.849     125.9   0.007035   0.006290  13.643035  13.001436     0.64 (  67->  86)    0.05 (  66->  86)    0.02 (  65->  86)
 243   9.861     125.7   0.010769   0.009333  -7.575222  -6.971069     0.06 (  83->  95)    0.03 (  83->  96)    0.03 (  85-> 126)
 244   9.873     125.6   0.025881   0.023968  22.145219  21.123718     0.04 (  69->  87)    0.03 (  74->  99)    0.03 (  67->  87)
 245   9.885     125.4   0.018026   0.014284  27.782769  22.665352     0.03 (  67->  95)    0.03 (  82-> 102)    0.03 (  72->  97)
 246   9.890     125.4   0.002342   0.002289  -8.487388  -8.760508     0.05 (  72->  97)    0.03 (  67->  95)    0.03 (  81-> 103)
 247   9.896     125.3   0.013761   0.013435  14.296879  13.932461     0.05 (  67->  95)    0.03 (  72->  99)    0.03 (  85-> 121)
 248   9.900     125.2   0.055173   0.047312  -36.129074  -33.630538     0.04 (  82-> 102)    0.03 (  82-> 121)    0.03 (  72->  97)
 249   9.911     125.1   0.050995   0.041266  64.490165  57.278714     0.11 (  80-> 115)    0.06 (  72->  97)    0.04 (  80-> 113)
 250   9.913     125.1   0.013312   0.011862  -49.220780  -46.876150     0.06 (  72->  97)    0.06 (  78->  92)    0.04 (  64->  92)
 251   9.923     124.9   0.011740   0.008939  43.683943  39.273020     0.07 (  82-> 102)    0.04 (  82->  95)    0.04 (  72->  97)
 252   9.932     124.8   0.028370   0.026545  -12.955821  -14.373804     0.04 (  85-> 109)    0.04 (  81->  93)    0.03 (  78->  92)
 253   9.942     124.7   0.011124   0.008669  -43.695919  -38.746233     0.09 (  80-> 115)    0.06 (  73->  96)    0.05 (  80-> 113)
 254   9.949     124.6   0.018220   0.015953  35.950534  33.922700     0.05 (  73->  96)    0.03 (  84-> 102)    0.03 (  72->  96)
 255   9.969     124.4   0.004850   0.004466   5.843040   5.124266     0.03 (  72->  97)    0.03 (  85-> 135)    0.03 (  78->  93)
 256   9.980     124.2   0.002483   0.001920   2.098726   1.980675     0.36 (  65->  86)    0.04 (  67->  87)    0.03 (  64->  86)
 257   9.986     124.2   0.005264   0.003989  -8.911778  -7.833360     0.32 (  65->  86)    0.03 (  67->  86)    0.03 (  73->  96)
 258   9.993     124.1   0.007761   0.006143  -22.156140  -19.491381     0.08 (  65->  86)    0.04 (  72->  97)    0.02 (  73->  96)
 259   9.998     124.0   0.008030   0.005975  -0.499562   0.060888     0.08 (  78->  93)    0.03 (  77->  93)    0.03 (  78-> 107)

sTD-DFT done

Total run time:       32.016 sec

           *** ORCA-CIS/TD-DFT FINISHED WITHOUT ERROR ***


-------------------------------------------------------------------------------
                          DFT DISPERSION CORRECTION                            
                                                                               
                              DFTD3 V3.1  Rev 1                                
                              USING zero damping                               
-------------------------------------------------------------------------------
The omegaB97X-D3 functional is recognized. Fit by Chai et al.
Active option DFTDOPT                   ...         3   

molecular C6(AA) [au] = 54212.134539 


            DFT-D V3
 parameters
 s6 scaling factor         :     1.0000 
 rs6 scaling factor        :     1.2810 
 s8 scaling factor         :     1.0000 
 rs8 scaling factor        :     1.0940 
 Damping factor alpha6     :    14.0000 
 Damping factor alpha8     :    16.0000 
 ad hoc parameters k1-k3   :    16.0000     1.3333    -4.0000 

 Edisp/kcal,au: -18.606605633912  -0.029651510325 
 E6   /kcal   :  -8.813254248 
 E8   /kcal   :  -9.793351386 
 % E8         :  52.633734378 

-------------------------   ----------------
Dispersion correction           -0.029651510
-------------------------   ----------------


-------------------------   --------------------
FINAL SINGLE POINT ENERGY     -2463.037679976101
-------------------------   --------------------


                            ***************************************
                            *     ORCA property calculations      *
                            ***************************************

                                    ---------------------
                                    Active property flags
                                    ---------------------
   (+) Dipole Moment
   (+) Quadrupole Moment


------------------------------------------------------------------------------
                       ORCA ELECTRIC PROPERTIES CALCULATION
------------------------------------------------------------------------------

Dipole Moment Calculation                       ... on
Quadrupole Moment Calculation                   ... on
Polarizability Calculation                      ... off
GBWName                                         ... total_job2.gbw
Electron density file                           ... total_job2.scfp.tmp

-------------
DIPOLE MOMENT
-------------
                                X             Y             Z
Electronic contribution:    -68.37378     -10.41180       0.42353
Nuclear contribution   :     68.58710      10.58571      -0.30021
                        -----------------------------------------
Total Dipole Moment    :      0.21332       0.17391       0.12332
                        -----------------------------------------
Magnitude (a.u.)       :      0.30159
Magnitude (Debye)      :      0.76659


------------------------
QUADRUPOLE MOMENT (A.U.)
------------------------

                XX           YY           ZZ           XY           XZ           YZ
  NUC     31115.55158   2244.83627   2221.99522  -2220.22297   -215.96615  -1320.54065
  EL     -31256.66001  -2409.15525  -2385.61113   2213.28062    220.28348   1310.29650
  TOT      -141.10843   -164.31899   -163.61592     -6.94235      4.31733    -10.24415

--------------------------------------------------------------------------
[[10209,1],3]: A high-performance Open MPI point-to-point messaging module
was unable to find any relevant network interfaces:

Module: OpenFabrics (openib)
  Host: cx1-105-19-2

Another transport will be used instead, although this may result in
lower performance.
--------------------------------------------------------------------------

Timings for individual modules:

Sum of individual times         ...      174.646 sec (=   2.911 min)
GTO integral calculation        ...        6.293 sec (=   0.105 min)   3.6 %
SCF iterations                  ...      135.874 sec (=   2.265 min)  77.8 %
CIS module                      ...       32.479 sec (=   0.541 min)  18.6 %



                             ****ORCA TERMINATED NORMALLY****
TOTAL RUN TIME: 0 days 0 hours 11 minutes 27 seconds 402 msec
