   86
Geometry Step: 4395
    C      8.85380360      1.65572954     -2.24746579      4.11386259
    C      8.00813300      0.84581577     -1.49368857      4.08187982
    C      8.48199150     -0.39616158     -1.02955437      4.03327426
    C      9.80800249     -0.78424069     -1.37183839      3.86608688
    C     10.66401065      0.03246662     -2.12639127      4.16387285
    C     10.16717621      1.26026312     -2.55593904      4.06785441
    C      7.91404564     -1.49615675     -0.26459812      4.04923080
    C      8.92467378     -2.50116627     -0.21038943      3.86547563
    N     10.05559893     -2.04683028     -0.86230816      5.17478994
    C      8.73338287     -3.74760353      0.40436126      4.16283058
    C      7.48537227     -3.99768573      0.97035544      4.07071708
    C      6.47453432     -3.02810682      0.93996664      4.13709663
    C      6.66113052     -1.76395691      0.34972962      3.99081128
    H      5.52036321     -3.24736774      1.41146142      0.91715969
    H     10.91476346     -2.57011052     -0.97808885      0.78420283
    H      7.29207286     -4.95286773      1.45009658      0.91746091
    H      6.99795277      1.17788602     -1.27790418      0.90473303
    H     11.67395575     -0.28588364     -2.37043750      0.91789961
    H     10.80051895      1.91973095     -3.14323214      0.92140114
    H      8.49235412      2.61549136     -2.60605942      0.91890001
    C      0.06108663      0.93841115      0.92839538      3.83505315
    N      0.60438812      2.16442253      0.92921261      5.17869978
    O      1.95164523      2.00583846      0.82074808      6.06176098
    C      2.25685355      0.70091313      0.75339199      3.77920671
    C      1.09549192     -0.04208025      0.81893541      4.28457144
    C      3.65459834      0.31321068      0.62497998      3.88055289
    N      4.64509842      1.21490785      0.55582941      5.16609631
    O      5.80209612      0.51100236      0.43681122      6.05938115
    C      5.55233502     -0.80684940      0.42668320      3.75850022
    C      4.18935304     -1.00561483      0.55416888      4.27799378
    H      3.65305570     -1.94316253      0.57309528      0.88704136
    H      1.00579044     -1.11824169      0.78280450      0.89276597
    C     -3.15028258     -0.96115490      1.51504919      3.83375535
    C     -1.80790951     -0.62524604      1.40930919      4.19771133
    C     -1.38564364      0.67827945      1.02992785      4.05293618
    C     -2.36037244      1.64802819      0.73599553      3.83871420
    C     -3.75815349      1.34441795      0.87354742      4.05046201
    C     -4.16120815      0.02697943      1.26636680      4.04530258
    C     -4.77266741      2.32215367      0.58475565      3.82727789
    C     -6.11977066      1.98788358      0.70729209      4.17391895
    C     -6.51190737      0.68912876      1.08449474      4.17398968
    C     -5.55781395     -0.28966136      1.35000956      3.82594858
    N     -5.96225585     -1.55945107      1.82588256      5.27663210
    C     -6.70046775     -2.36978885      1.14474162      3.76296670
    C     -7.13257932     -3.67432076      1.76891658      4.27838345
    N     -4.41154634      3.66217684      0.31638972      5.27654881
    C     -4.79750214      4.30794588     -0.73310257      3.76568952
    C     -5.56928667      3.69672757     -1.88890970      4.28940090
    N     -1.98090320      2.96540456      0.39597585      5.26211556
    C     -1.47440271      3.28982222     -0.74471737      3.74784496
    C     -1.26735478      2.31434639     -1.88789317      4.28580066
    N     -3.52293768     -2.24239028      1.98987154      5.27731365
    C     -3.19410588     -3.33925853      1.39422309      3.76377666
    C     -3.58273317     -4.65881766      2.01572038      4.27855150
    C     -2.45900693     -3.41723119      0.06779090      4.28957368
    C     -7.15418360     -2.12948944     -0.28389006      4.28911677
    C     -4.44058504      5.76770850     -0.87257281      4.27895031
    C     -1.03539129      4.71120640     -0.98533843      4.27566746
    H     -1.05843023     -1.37418799      1.64832611      0.91262516
    H     -6.87620725      2.74599728      0.52559757      0.91381458
    H     -7.02670574     -3.03095817     -0.88145616      0.91506529
    H     -6.59589864     -1.31823608     -0.74349759      0.90128307
    H     -8.21322742     -1.87166470     -0.31063984      0.90666151
    H     -6.75827363     -4.51940630      1.19014100      0.91571692
    H     -8.21970863     -3.75485852      1.78337603      0.91258118
    H     -6.76316724     -3.76164546      2.78629538      0.90039079
    H     -1.41934708     -3.70717955      0.22278217      0.90754145
    H     -2.46954261     -2.45981778     -0.44639506      0.90102290
    H     -2.91138282     -4.17063454     -0.57529861      0.91537448
    H     -4.23452080     -5.22159945      1.34654731      0.91600522
    H     -4.10138311     -4.50886697      2.95789065      0.90037135
    H     -2.70215050     -5.27591569      2.19564468      0.91288434
    H     -0.21785758      2.02434704     -1.94597814      0.89880325
    H     -1.53523843      2.76829264     -2.84057971      0.91846915
    H     -1.85849740      1.41305825     -1.74528452      0.90776484
    H     -1.27986720      5.34414780     -0.13759889      0.90062966
    H      0.04196880      4.75091452     -1.14778033      0.90455088
    H     -1.51024917      5.11942693     -1.87781743      0.92099149
    H     -3.86163919      6.11133768     -0.02065221      0.89920970
    H     -5.34110152      6.37762732     -0.95066025      0.91165357
    H     -3.86106998      5.93906563     -1.78014007      0.91589021
    H     -5.14751320      4.01934625     -2.83980440      0.91516006
    H     -6.60987366      4.02167150     -1.87099880      0.90626211
    H     -5.55222662      2.61097799     -1.84468737      0.90153646
    H      9.52543430     -4.49065408      0.42861580      0.91475791
    H     -7.56708128      0.45171248      1.18488487      0.91346930
