   78
Geometry Step: 2181
    C      7.47661659      1.40651512     -3.43437363      4.11745819
    C      7.05615018      0.73267689     -2.29025510      4.08086406
    C      8.00599751      0.04284032     -1.51351828      4.02856110
    C      9.36452373      0.05490175     -1.93790761      3.86799389
    C      9.79205732      0.73874785     -3.08624057      4.16686396
    C      8.82640487      1.41532914     -3.82754161      4.06982089
    C      7.95481361     -0.77242557     -0.30924631      4.04472817
    C      9.28902434     -1.22341788     -0.08369186      3.86853989
    N     10.11892440     -0.70307668     -1.05967940      5.17639130
    C      9.64190569     -2.08146794      0.96833525      4.16529717
    C      8.61959118     -2.51283945      1.81106743      4.07293894
    C      7.29935849     -2.08933274      1.61435892      4.13832238
    C      6.93273030     -1.20801853      0.57897352      3.97233126
    H      6.53139773     -2.43572793      2.30215133      0.91482025
    H     11.11312156     -0.87857375     -1.13711320      0.78546661
    H      8.84614450     -3.18396266      2.63469066      0.91850310
    H      6.00871969      0.74639730     -2.00319309      0.89486623
    H     10.83648644      0.73537469     -3.38675162      0.91959381
    H      9.11956097      1.95637730     -4.72348194      0.92367664
    H      6.74738094      1.94163548     -4.03672251      0.92142270
    S      0.60080086      0.77682313      0.26075174      6.04143055
    C      1.68844132     -0.52019317      0.78005629      3.85790122
    N      1.05931489     -1.54673564      1.34026233      5.18377742
    N     -0.29477671     -1.38117775      1.40026132      5.18935988
    C     -0.72158510     -0.22501084      0.90105756      3.79238466
    C      3.12140098     -0.46560119      0.60294489      3.82086852
    N      3.76141213      0.54992978      0.03843132      5.19590592
    N      5.11771283      0.36948894     -0.02210397      5.18653975
    C      5.53267619     -0.78018267      0.48540020      3.81459914
    S      4.19694590     -1.77162297      1.12595208      6.05186863
    C     -4.84546767      0.96208842      0.90399228      4.20820777
    C     -3.90241661      1.75234998      0.22250797      3.87871640
    C     -2.53946960      1.35852006      0.21524254      3.88771417
    C     -2.12387813      0.18359874      0.90032266      4.08902420
    C     -3.09731014     -0.61631802      1.56067819      3.86582844
    C     -4.46218008     -0.22127219      1.55513353      3.88019670
    N     -2.70517129     -1.72063714      2.33718234      5.26064446
    C     -3.14294099     -2.92363468      2.16825531      3.74669364
    C     -4.00652341     -3.36919952      1.00307467      4.28152647
    N     -5.39120919     -0.96282871      2.33014656      5.29777658
    C     -6.53522234     -1.35308507      1.87082986      3.76150448
    C     -7.00420845     -1.18363006      0.43543952      4.29385390
    N     -4.26121038      3.01026732     -0.32530526      5.30043275
    C     -5.28486508      3.17854589     -1.09819014      3.76329573
    C     -6.16939153      2.06585157     -1.63511753      4.29393638
    N     -1.56271965      2.19304186     -0.36444422      5.26650238
    C     -1.59201083      2.61444096     -1.58911097      3.74470446
    C     -2.57141525      2.14431708     -2.64450018      4.28075725
    C     -2.73745881     -3.99924464      3.14294787      4.27436156
    C     -7.48622073     -2.07544202      2.79240456      4.27943431
    C     -5.62787052      4.57218051     -1.56319072      4.27993007
    C     -0.53607942      3.58618957     -2.04884401      4.27732235
    H     -2.13578832     -3.59013782      3.94876190      0.89821485
    H     -2.16133615     -4.77596155      2.63942080      0.90974314
    H     -3.61669311     -4.48103293      3.57151239      0.91624387
    H     -3.58120022     -4.25530257      0.53339643      0.91228313
    H     -5.00753057     -3.63230962      1.34620741      0.90758777
    H     -4.09812994     -2.58551927      0.25523917      0.91036719
    H     -0.99477979      4.49832395     -2.43126693      0.91041789
    H      0.13468514      3.84861989     -1.23621236      0.89701286
    H      0.05176156      3.16017694     -2.86228070      0.90951838
    H     -3.26192954      2.94333439     -2.91526162      0.90220477
    H     -3.15335460      1.29459707     -2.29691858      0.90704625
    H     -2.03658790      1.85868746     -3.54983670      0.91293558
    H     -6.43811913      2.26338208     -2.67135086      0.91302471
    H     -5.67240691      1.10025584     -1.57764675      0.90458847
    H     -7.09797795      2.00051632     -1.06745491      0.90384994
    H     -4.96073384      5.30736328     -1.12343344      0.89910446
    H     -6.65301621      4.82654059     -1.29369545      0.90957424
    H     -5.55850596      4.64438408     -2.64932382      0.91427456
    H     -7.08613914     -2.13486839      3.80003932      0.89887240
    H     -8.44920824     -1.56592013      2.82871614      0.91052834
    H     -7.67623335     -3.08752834      2.43303190      0.91363029
    H     -6.16856724     -1.00350331     -0.23673765      0.90455856
    H     -7.53888039     -2.07197236      0.10407314      0.91273974
    H     -7.69180875     -0.34169689      0.35021248      0.90487806
    H     10.66932228     -2.40397923      1.11195035      0.91617345
    H     -5.87505495      1.29968028      0.97412935      0.90516644
