
                                 *****************
                                 * O   R   C   A *
                                 *****************

           --- An Ab Initio, DFT and Semiempirical electronic structure package ---

                  #######################################################
                  #                        -***-                        #
                  #  Department of molecular theory and spectroscopy    #
                  #              Directorship: Frank Neese              #
                  # Max Planck Institute for Chemical Energy Conversion #
                  #                  D-45470 Muelheim/Ruhr              #
                  #                       Germany                       #
                  #                                                     #
                  #                  All rights reserved                #
                  #                        -***-                        #
                  #######################################################


                         Program Version 4.0.0 -  RELEASE  -


 With contributions from (in alphabetic order):
   Daniel Aravena         : Magnetic Properties
   Michael Atanasov       : Ab Initio Ligand Field Theory
   Ute Becker             : Parallelization
   Martin Brehm           : Molecular dynamics
   Dmytro Bykov           : SCF Hessian
   Vijay G. Chilkuri      : MRCI spin determinant printing
   Dipayan Datta          : RHF DLPNO-CCSD density
   Achintya Kumar Dutta   : EOM-CC, STEOM-CC
   Dmitry Ganyushin       : Spin-Orbit,Spin-Spin,Magnetic field MRCI
   Yang Guo               : DLPNO-NEVPT2, CIM, IAO-localization
   Andreas Hansen         : Spin unrestricted coupled pair/coupled cluster methods
   Lee Huntington         : MR-EOM, pCC
   Robert Izsak           : Overlap fitted RIJCOSX, COSX-SCS-MP3, EOM
   Christian Kollmar      : KDIIS, OOCD, Brueckner-CCSD(T), CCSD density
   Simone Kossmann        : Meta GGA functionals, TD-DFT gradient, OOMP2, MP2 Hessian
   Martin Krupicka        : AUTO-CI
   Dagmar Lenk            : GEPOL surface
   Dimitrios Liakos       : Extrapolation schemes; parallel MDCI
   Dimitrios Manganas     : ROCIS; embedding schemes
   Dimitrios Pantazis     : SARC Basis sets
   Taras Petrenko         : DFT Hessian,TD-DFT gradient, ASA, ECA, R-Raman, ABS, FL, XAS/XES, NRVS
   Peter Pinski           : DLPNO-MP2
   Christoph Reimann      : Effective Core Potentials
   Marius Retegan         : Local ZFS, SOC
   Christoph Riplinger    : Optimizer, TS searches, QM/MM, DLPNO-CCSD(T), (RO)-DLPNO pert. Triples
   Tobias Risthaus        : Range-separated hybrids, TD-DFT gradient, RPA, STAB
   Michael Roemelt        : Restricted open shell CIS
   Masaaki Saitow         : Open-shell DLPNO
   Barbara Sandhoefer     : DKH picture change effects
   Kantharuban Sivalingam : CASSCF convergence, NEVPT2, FIC-MRCI
   Georgi Stoychev        : AutoAux
   Boris Wezisla          : Elementary symmetry handling
   Frank Wennmohs         : Technical directorship


 We gratefully acknowledge several colleagues who have allowed us to
 interface, adapt or use parts of their codes:
   Stefan Grimme, W. Hujo, H. Kruse,             : VdW corrections, initial TS optimization,
                  C. Bannwarth                     DFT functionals, gCP, sTDA/sTD-DF
   Ed Valeev                                     : LibInt (2-el integral package), F12 methods
   Garnet Chan, S. Sharma, J. Yang, R. Olivares  : DMRG
   Ulf Ekstrom                                   : XCFun DFT Library
   Mihaly Kallay                                 : mrcc  (arbitrary order and MRCC methods)
   Jiri Pittner, Ondrej Demel                    : Mk-CCSD
   Frank Weinhold                                : gennbo (NPA and NBO analysis)
   Christopher J. Cramer and Donald G. Truhlar   : smd solvation model


 Your calculation uses the libint2 library for the computation of 2-el integrals
 For citations please refer to: http://libint.valeyev.net

 This ORCA versions uses:
   CBLAS   interface :  Fast vector & matrix operations
   LAPACKE interface :  Fast linear algebra routines
   SCALAPACK package :  Parallel linear algebra routines


Your calculation utilizes the atom-pairwise dispersion correction
with the zero-damping scheme (D30)
Cite in your paper:
S.Grimme, J.Antony, S.Ehrlich and H.Krieg, J.Chem.Phys., 132, (2010), 154104 
   

XCFun DFT library Copyright 2009-2010 Ulf Ekstrom and contributors.
See http://admol.org/xcfun for more information. This is free soft-
ware; see the source code for copying conditions. There is ABSOLUTELY
NO WARRANTY; not even for MERCHANTABILITY or FITNESS FOR A PARTICULAR
PURPOSE. For details see the documentation. Scientific users of this 
library should cite U. Ekstrom, L. Visscher, R. Bast, A. J. Thorvald-
sen and K. Ruud; J.Chem.Theor.Comp. 2010, DOI: 10.1021/ct100117s
XCFun Version 0.99 
Your calculation utilizes the basis: def2-TZVP
   F. Weigend and R. Ahlrichs, Phys. Chem. Chem. Phys. 7, 3297 (2005).

Your calculation utilizes the auxiliary basis: def2/J
   F. Weigend, Phys. Chem. Chem. Phys. 8, 1057 (2006).

================================================================================
                                        WARNINGS
                       Please study these warnings very carefully!
================================================================================

Warning: TCutStore was < 0. Adjusted to Thresh (uncritical)
INFO   : Checking CIS options ...

WARNING: CIS/ROCIS methods need fully converged wavefunctions
  ===> : Setting SCFConvForced true
         You can overwrite this default with %scf ConvForced false 


INFO   : the flag for use of LIBINT has been found!

Your calculation utilizes the atom-pairwise dispersion correction
with the zero-damping scheme (D30)
Cite in your paper:
S.Grimme, J.Antony, S.Ehrlich and H.Krieg, J.Chem.Phys., 132, (2010), 154104 
   

XCFun DFT library Copyright 2009-2010 Ulf Ekstrom and contributors.
See http://admol.org/xcfun for more information. This is free soft-
ware; see the source code for copying conditions. There is ABSOLUTELY
NO WARRANTY; not even for MERCHANTABILITY or FITNESS FOR A PARTICULAR
PURPOSE. For details see the documentation. Scientific users of this 
library should cite U. Ekstrom, L. Visscher, R. Bast, A. J. Thorvald-
sen and K. Ruud; J.Chem.Theor.Comp. 2010, DOI: 10.1021/ct100117s
XCFun Version 0.99 
Your calculation utilizes the basis: def2-TZVP
   F. Weigend and R. Ahlrichs, Phys. Chem. Chem. Phys. 7, 3297 (2005).

Your calculation utilizes the auxiliary basis: def2/J
   F. Weigend, Phys. Chem. Chem. Phys. 8, 1057 (2006).

================================================================================
                                        WARNINGS
                       Please study these warnings very carefully!
================================================================================

INFO   : Checking CIS options ...

INFO   : the flag for use of LIBINT has been found!

================================================================================
                                       INPUT FILE
================================================================================
NAME = total.inp
|  1> # 
|  2> !wB97X-D3 def2-TZVP def2/J RIJCOSX Grid5 FinalGrid6 TightSCF
|  3> %pal 
|  4>  nprocs 24
|  5> end
|  6> %tddft
|  7>   Mode sTDDFT
|  8>   nroots 2
|  9>   Ethresh 10.0
| 10>   maxcore 5000
| 11>   triplets true
| 12> end
| 13> * xyz 0 1 
| 14> C -5.56664797 -2.20716587 1.13970762
| 15> C -4.64312517 -1.25197715 0.72295683
| 16> C -5.10794289 -0.05442163 0.14622335
| 17> C -6.51199421 0.12070654 -0.00844742
| 18> C -7.44487226 -0.83781600 0.41597266
| 19> C -6.95021404 -2.00303893 0.99576734
| 20> C -4.47940459 1.13054135 -0.41781741
| 21> C -5.54296299 1.94556180 -0.90705264
| 22> N -6.75070329 1.33169424 -0.63433205
| 23> C -5.33158879 3.16166469 -1.57374829
| 24> C -4.01261277 3.56563639 -1.76714186
| 25> C -2.94628663 2.79102886 -1.29196599
| 26> C -3.14448664 1.58229341 -0.59849731
| 27> H -1.93016226 3.14687718 -1.43941636
| 28> H -7.66200277 1.69437897 -0.88619225
| 29> H -3.80389478 4.49702596 -2.28553121
| 30> H -3.58180218 -1.44333321 0.84237951
| 31> H -8.51222764 -0.67753718 0.28989248
| 32> H -7.64215524 -2.76881347 1.33585817
| 33> H -5.21196638 -3.13184125 1.58628853
| 34> C 3.62191756 -0.61725638 0.16090182
| 35> N 3.23289501 -1.31427161 1.23759504
| 36> O 1.89908668 -1.10694307 1.38493980
| 37> C 1.44830950 -0.29154539 0.41865966
| 38> C 2.49784156 0.05788907 -0.40670290
| 39> C 0.03498660 0.05957866 0.40033485
| 40> N -0.82720820 -0.40070289 1.31874513
| 41> O -2.04296994 0.11643658 1.00077387
| 42> C -1.95672363 0.88382704 -0.09575977
| 43> C -0.64285617 0.89994474 -0.52896718
| 44> H -0.23187913 1.41055438 -1.38759844
| 45> H 2.46426831 0.70976521 -1.26772062
| 46> C 6.94821144 -1.89855565 2.45076743
| 47> N 5.89299385 -1.48690142 1.75918751
| 48> C 6.11115283 -1.05187799 0.47612375
| 49> C 7.43834165 -1.02789536 -0.06384927
| 50> N 8.51394874 -1.46129194 0.67620007
| 51> C 8.26188582 -1.89280109 1.90565695
| 52> C 7.65391186 -0.54836688 -1.38596313
| 53> C 6.58587144 -0.10671865 -2.13873055
| 54> C 5.27620090 -0.13234673 -1.61484546
| 55> C 5.00955859 -0.59934722 -0.33133552
| 56> H 4.45584380 0.21110872 -2.23993808
| 57> H 6.74465821 0.26151285 -3.14896828
| 58> H 9.11100747 -2.24356912 2.50544695
| 59> H 6.77824685 -2.24483971 3.47770737
| 60> H -6.16497795 3.75865393 -1.93303938
| 61> H 8.66262985 -0.53560477 -1.79002531
| 62> *
| 63> $new_job
| 64> # 
| 65> !wB97X-D3 def2-TZVP def2/J RIJCOSX Grid5 FinalGrid6 TightSCF
| 66> %pal 
| 67>  nprocs 24
| 68> end
| 69> %elprop
| 70>    dipole     true
| 71>    quadrupole true
| 72> end
| 73> %tddft
| 74>   Mode sTDDFT
| 75>   nroots 2
| 76>   Ethresh 10.0
| 77>   maxcore 5000
| 78> end
| 79> * xyz 0 1 
| 80> C -5.56664797 -2.20716587 1.13970762
| 81> C -4.64312517 -1.25197715 0.72295683
| 82> C -5.10794289 -0.05442163 0.14622335
| 83> C -6.51199421 0.12070654 -0.00844742
| 84> C -7.44487226 -0.83781600 0.41597266
| 85> C -6.95021404 -2.00303893 0.99576734
| 86> C -4.47940459 1.13054135 -0.41781741
| 87> C -5.54296299 1.94556180 -0.90705264
| 88> N -6.75070329 1.33169424 -0.63433205
| 89> C -5.33158879 3.16166469 -1.57374829
| 90> C -4.01261277 3.56563639 -1.76714186
| 91> C -2.94628663 2.79102886 -1.29196599
| 92> C -3.14448664 1.58229341 -0.59849731
| 93> H -1.93016226 3.14687718 -1.43941636
| 94> H -7.66200277 1.69437897 -0.88619225
| 95> H -3.80389478 4.49702596 -2.28553121
| 96> H -3.58180218 -1.44333321 0.84237951
| 97> H -8.51222764 -0.67753718 0.28989248
| 98> H -7.64215524 -2.76881347 1.33585817
| 99> H -5.21196638 -3.13184125 1.58628853
|100> C 3.62191756 -0.61725638 0.16090182
|101> N 3.23289501 -1.31427161 1.23759504
|102> O 1.89908668 -1.10694307 1.38493980
|103> C 1.44830950 -0.29154539 0.41865966
|104> C 2.49784156 0.05788907 -0.40670290
|105> C 0.03498660 0.05957866 0.40033485
|106> N -0.82720820 -0.40070289 1.31874513
|107> O -2.04296994 0.11643658 1.00077387
|108> C -1.95672363 0.88382704 -0.09575977
|109> C -0.64285617 0.89994474 -0.52896718
|110> H -0.23187913 1.41055438 -1.38759844
|111> H 2.46426831 0.70976521 -1.26772062
|112> C 6.94821144 -1.89855565 2.45076743
|113> N 5.89299385 -1.48690142 1.75918751
|114> C 6.11115283 -1.05187799 0.47612375
|115> C 7.43834165 -1.02789536 -0.06384927
|116> N 8.51394874 -1.46129194 0.67620007
|117> C 8.26188582 -1.89280109 1.90565695
|118> C 7.65391186 -0.54836688 -1.38596313
|119> C 6.58587144 -0.10671865 -2.13873055
|120> C 5.27620090 -0.13234673 -1.61484546
|121> C 5.00955859 -0.59934722 -0.33133552
|122> H 4.45584380 0.21110872 -2.23993808
|123> H 6.74465821 0.26151285 -3.14896828
|124> H 9.11100747 -2.24356912 2.50544695
|125> H 6.77824685 -2.24483971 3.47770737
|126> H -6.16497795 3.75865393 -1.93303938
|127> H 8.66262985 -0.53560477 -1.79002531
|128> *
|129> 
|130>                          ****END OF INPUT****
================================================================================


                 $$$$$$$$$$$$$$$$$$$$$$$$$$$$$$$$$$$$$$$$$$$$$$ 
                 $ THERE ARE  2 JOBS TO BE PROCESSED THIS RUN $
                 $$$$$$$$$$$$$$$$$$$$$$$$$$$$$$$$$$$$$$$$$$$$$$ 




                 $$$$$$$$$$$$$$$$  JOB NUMBER  1 $$$$$$$$$$$$$$


                       ****************************
                       * Single Point Calculation *
                       ****************************

---------------------------------
CARTESIAN COORDINATES (ANGSTROEM)
---------------------------------
  C     -5.566648   -2.207166    1.139708
  C     -4.643125   -1.251977    0.722957
  C     -5.107943   -0.054422    0.146223
  C     -6.511994    0.120707   -0.008447
  C     -7.444872   -0.837816    0.415973
  C     -6.950214   -2.003039    0.995767
  C     -4.479405    1.130541   -0.417817
  C     -5.542963    1.945562   -0.907053
  N     -6.750703    1.331694   -0.634332
  C     -5.331589    3.161665   -1.573748
  C     -4.012613    3.565636   -1.767142
  C     -2.946287    2.791029   -1.291966
  C     -3.144487    1.582293   -0.598497
  H     -1.930162    3.146877   -1.439416
  H     -7.662003    1.694379   -0.886192
  H     -3.803895    4.497026   -2.285531
  H     -3.581802   -1.443333    0.842380
  H     -8.512228   -0.677537    0.289892
  H     -7.642155   -2.768813    1.335858
  H     -5.211966   -3.131841    1.586289
  C      3.621918   -0.617256    0.160902
  N      3.232895   -1.314272    1.237595
  O      1.899087   -1.106943    1.384940
  C      1.448309   -0.291545    0.418660
  C      2.497842    0.057889   -0.406703
  C      0.034987    0.059579    0.400335
  N     -0.827208   -0.400703    1.318745
  O     -2.042970    0.116437    1.000774
  C     -1.956724    0.883827   -0.095760
  C     -0.642856    0.899945   -0.528967
  H     -0.231879    1.410554   -1.387598
  H      2.464268    0.709765   -1.267721
  C      6.948211   -1.898556    2.450767
  N      5.892994   -1.486901    1.759188
  C      6.111153   -1.051878    0.476124
  C      7.438342   -1.027895   -0.063849
  N      8.513949   -1.461292    0.676200
  C      8.261886   -1.892801    1.905657
  C      7.653912   -0.548367   -1.385963
  C      6.585871   -0.106719   -2.138731
  C      5.276201   -0.132347   -1.614845
  C      5.009559   -0.599347   -0.331336
  H      4.455844    0.211109   -2.239938
  H      6.744658    0.261513   -3.148968
  H      9.111007   -2.243569    2.505447
  H      6.778247   -2.244840    3.477707
  H     -6.164978    3.758654   -1.933039
  H      8.662630   -0.535605   -1.790025

----------------------------
CARTESIAN COORDINATES (A.U.)
----------------------------
  NO LB      ZA    FRAG     MASS         X           Y           Z
   0 C     6.0000    0    12.011  -10.519440   -4.170939    2.153735
   1 C     6.0000    0    12.011   -8.774235   -2.365894    1.366190
   2 C     6.0000    0    12.011   -9.652613   -0.102842    0.276322
   3 C     6.0000    0    12.011  -12.305886    0.228102   -0.015963
   4 C     6.0000    0    12.011  -14.068770   -1.583243    0.786074
   5 C     6.0000    0    12.011  -13.134001   -3.785195    1.881728
   6 C     6.0000    0    12.011   -8.464848    2.136414   -0.789560
   7 C     6.0000    0    12.011  -10.474682    3.676579   -1.714081
   8 N     7.0000    0    14.007  -12.756980    2.516537   -1.198714
   9 C     6.0000    0    12.011  -10.075243    5.974680   -2.973953
  10 C     6.0000    0    12.011   -7.582739    6.738076   -3.339414
  11 C     6.0000    0    12.011   -5.567675    5.274280   -2.441462
  12 C     6.0000    0    12.011   -5.942219    2.990101   -1.130996
  13 H     1.0000    0     1.008   -3.647478    5.946736   -2.720103
  14 H     1.0000    0     1.008  -14.479087    3.201912   -1.674661
  15 H     1.0000    0     1.008   -7.188319    8.498147   -4.319028
  16 H     1.0000    0     1.008   -6.768625   -2.727504    1.591867
  17 H     1.0000    0     1.008  -16.085779   -1.280360    0.547817
  18 H     1.0000    0     1.008  -14.441580   -5.232299    2.524406
  19 H     1.0000    0     1.008   -9.849189   -5.918322    2.997651
  20 C     6.0000    0    12.011    6.844432   -1.166446    0.304060
  21 N     7.0000    0    14.007    6.109286   -2.483613    2.338716
  22 O     8.0000    0    15.999    3.588754   -2.091819    2.617157
  23 C     6.0000    0    12.011    2.736908   -0.550941    0.791152
  24 C     6.0000    0    12.011    4.720236    0.109394   -0.768557
  25 C     6.0000    0    12.011    0.066115    0.112587    0.756523
  26 N     7.0000    0    14.007   -1.563197   -0.757219    2.492067
  27 O     8.0000    0    15.999   -3.860654    0.220033    1.891189
  28 C     6.0000    0    12.011   -3.697672    1.670191   -0.180960
  29 C     6.0000    0    12.011   -1.214822    1.700649   -0.999603
  30 H     1.0000    0     1.008   -0.438188    2.665561   -2.622181
  31 H     1.0000    0     1.008    4.656792    1.341262   -2.395645
  32 C     6.0000    0    12.011   13.130217   -3.587750    4.631279
  33 N     7.0000    0    14.007   11.136144   -2.809836    3.324383
  34 C     6.0000    0    12.011   11.548405   -1.987761    0.899743
  35 C     6.0000    0    12.011   14.056429   -1.942441   -0.120658
  36 N     7.0000    0    14.007   16.089031   -2.761442    1.277833
  37 C     6.0000    0    12.011   15.612702   -3.576876    3.601170
  38 C     6.0000    0    12.011   14.463797   -1.036263   -2.619091
  39 C     6.0000    0    12.011   12.445493   -0.201669   -4.041615
  40 C     6.0000    0    12.011    9.970575   -0.250099   -3.051616
  41 C     6.0000    0    12.011    9.466694   -1.132602   -0.626133
  42 H     1.0000    0     1.008    8.420324    0.398938   -4.232870
  43 H     1.0000    0     1.008   12.745557    0.494188   -5.950688
  44 H     1.0000    0     1.008   17.217309   -4.239731    4.734609
  45 H     1.0000    0     1.008   12.809030   -4.242132    6.571915
  46 H     1.0000    0     1.008  -11.650120    7.102827   -3.652915
  47 H     1.0000    0     1.008   16.369998   -1.012146   -3.382658

--------------------------------
INTERNAL COORDINATES (ANGSTROEM)
--------------------------------
 C      0   0   0     0.000000000000     0.00000000     0.00000000
 C      1   0   0     1.392465825039     0.00000000     0.00000000
 C      2   1   0     1.408125080830   119.14636145     0.00000000
 C      3   2   1     1.423359769072   118.34407871   358.93720321
 C      4   3   2     1.403267373015   122.60622536     1.38471204
 C      5   4   3     1.392333689231   117.47821924   359.33716762
 C      3   2   1     1.455108118828   135.13306160   181.50326257
 C      7   3   2     1.426452212449   106.03176152   176.52395740
 N      8   7   3     1.381971972825   109.27581421     1.57099030
 C      8   7   3     1.402878605304   123.08922869   182.53325746
 C     10   8   7     1.392943627235   117.39051308     0.64319898
 C     11  10   8     1.401021188209   120.88101286   359.01902087
 C     12  11  10     1.407559392065   122.32459766   359.74832530
 H     12  11  10     1.086682278206   118.98738064   181.41850438
 H      9   8   7     1.012640368526   125.33049780   180.80965306
 H     11  10   8     1.086175514660   119.79519657   179.53005913
 H      2   1   3     1.085027837108   119.65786062   180.31486685
 H      5   4   3     1.086661409614   121.14042533   179.73396814
 H      6   5   4     1.086671543301   119.59424330   180.05868022
 H      1   2   3     1.086396841785   119.36397553   180.07697869
 C     14  12  11     6.896035822297   122.86116914   186.30452553
 N     21  14  12     1.340312301389   103.68576194   326.31075401
 O     22  21  14     1.357843975932   107.03022301     8.69932372
 C     23  22  21     1.342300544407   110.15233491   359.97225644
 C     24  23  22     1.380161346457   109.20323885     0.27196791
 C     24  23  22     1.456401564409   118.77700235   180.12328593
 N     26  24  23     1.341162339475   122.17443126     0.25316964
 O     27  26  24     1.358902337207   106.51787691   180.14595611
 C     28  27  26     1.341160903001   110.58070168     0.18185630
 C     29  28  27     1.383537546574   108.88914722   359.41281322
 H     30  29  28     1.080218483695   128.00216528   179.28677251
 H     25  24  23     1.080472664703   127.27766656   180.75797950
 C     22  21  14     3.951803545507    92.90167178   202.43784513
 N     33  22  21     1.327111959508    17.56379530     3.28323873
 C     34  33  22     1.372257751820   117.33364957   199.09747055
 C     35  34  33     1.433030422846   120.32173182   358.81382364
 N     36  35  34     1.375658472604   121.07487433     1.26052647
 C     37  36  35     1.327139812511   116.89108455   359.71500360
 C     36  35  34     1.422815215471   119.74204159   181.30265761
 C     39  36  35     1.379283250978   119.85032327     0.15355166
 C     40  39  36     1.410797401951   120.68763491   359.60789620
 C     41  40  39     1.391612498227   121.76670197     0.00000000
 H     41  40  39     1.087054828991   118.76992550   180.78607225
 H     40  39  36     1.086916715777   120.17354832   179.94473194
 H     38  37  36     1.097175387743   117.60602706   179.85180566
 H     33  22  21     1.096998747689   100.85907379   165.97682430
 H     10   8   7     1.086288972619   121.19751535   180.05276238
 H     39  36  35     1.086711139221   119.34708024   180.16921126

---------------------------
INTERNAL COORDINATES (A.U.)
---------------------------
 C      0   0   0     0.000000000000     0.00000000     0.00000000
 C      1   0   0     2.631379060168     0.00000000     0.00000000
 C      2   1   0     2.660970765074   119.14636145     0.00000000
 C      3   2   1     2.689760153588   118.34407871   358.93720321
 C      4   3   2     2.651791027665   122.60622536     1.38471204
 C      5   4   3     2.631129359679   117.47821924   359.33716762
 C      3   2   1     2.749755839830   135.13306160   181.50326257
 C      7   3   2     2.695604024656   106.03176152   176.52395740
 N      8   7   3     2.611548553394   109.27581421     1.57099030
 C      8   7   3     2.651056363163   123.08922869   182.53325746
 C     10   8   7     2.632281975464   117.39051308     0.64319898
 C     11  10   8     2.647546353536   120.88101286   359.01902087
 C     12  11  10     2.659901768232   122.32459766   359.74832530
 H     12  11  10     2.053531900396   118.98738064   181.41850438
 H      9   8   7     1.913612968666   125.33049780   180.80965306
 H     11  10   8     2.052574256079   119.79519657   179.53005913
 H      2   1   3     2.050405459815   119.65786062   180.31486685
 H      5   4   3     2.053492464471   121.14042533   179.73396814
 H      6   5   4     2.053511614364   119.59424330   180.05868022
 H      1   2   3     2.052992503730   119.36397553   180.07697869
 C     14  12  11    13.031619113852   122.86116914   186.30452553
 N     21  14  12     2.532823183551   103.68576194   326.31075401
 O     22  21  14     2.565953247107   107.03022301     8.69932372
 C     23  22  21     2.536580418343   110.15233491   359.97225644
 C     24  23  22     2.608126965427   109.20323885     0.27196791
 C     24  23  22     2.752200097748   118.77700235   180.12328593
 N     26  24  23     2.534429522738   122.17443126     0.25316964
 O     27  26  24     2.567953260066   106.51787691   180.14595611
 C     28  27  26     2.534426808195   110.58070168     0.18185630
 C     29  28  27     2.614507059022   108.88914722   359.41281322
 H     30  29  28     2.041317098984   128.00216528   179.28677251
 H     25  24  23     2.041797431477   127.27766656   180.75797950
 C     22  21  14     7.467826436068    92.90167178   202.43784513
 N     33  22  21     2.507878152522    17.56379530     3.28323873
 C     34  33  22     2.593191336089   117.33364957   199.09747055
 C     35  34  33     2.708035040757   120.32173182   358.81382364
 N     36  35  34     2.599617767031   121.07487433     1.26052647
 C     37  36  35     2.507930787070   116.89108455   359.71500360
 C     36  35  34     2.688731096416   119.74204159   181.30265761
 C     39  36  35     2.606467605454   119.85032327     0.15355166
 C     40  39  36     2.666020720136   120.68763491   359.60789620
 C     41  40  39     2.629766506191   121.76670197     0.00000000
 H     41  40  39     2.054235919350   118.76992550   180.78607225
 H     40  39  36     2.053974923199   120.17354832   179.94473194
 H     38  37  36     2.073361003713   117.60602706   179.85180566
 H     33  22  21     2.073027202387   100.85907379   165.97682430
 H     10   8   7     2.052788660549   121.19751535   180.05276238
 H     39  36  35     2.053586439810   119.34708024   180.16921126

---------------------
BASIS SET INFORMATION
---------------------
There are 4 groups of distinct atoms

 Group   1 Type C   : 11s6p2d1f contracted to 5s3p2d1f pattern {62111/411/11/1}
 Group   2 Type N   : 11s6p2d1f contracted to 5s3p2d1f pattern {62111/411/11/1}
 Group   3 Type H   : 5s1p contracted to 3s1p pattern {311/1}
 Group   4 Type O   : 11s6p2d1f contracted to 5s3p2d1f pattern {62111/411/11/1}

Atom   0C    basis set group =>   1
Atom   1C    basis set group =>   1
Atom   2C    basis set group =>   1
Atom   3C    basis set group =>   1
Atom   4C    basis set group =>   1
Atom   5C    basis set group =>   1
Atom   6C    basis set group =>   1
Atom   7C    basis set group =>   1
Atom   8N    basis set group =>   2
Atom   9C    basis set group =>   1
Atom  10C    basis set group =>   1
Atom  11C    basis set group =>   1
Atom  12C    basis set group =>   1
Atom  13H    basis set group =>   3
Atom  14H    basis set group =>   3
Atom  15H    basis set group =>   3
Atom  16H    basis set group =>   3
Atom  17H    basis set group =>   3
Atom  18H    basis set group =>   3
Atom  19H    basis set group =>   3
Atom  20C    basis set group =>   1
Atom  21N    basis set group =>   2
Atom  22O    basis set group =>   4
Atom  23C    basis set group =>   1
Atom  24C    basis set group =>   1
Atom  25C    basis set group =>   1
Atom  26N    basis set group =>   2
Atom  27O    basis set group =>   4
Atom  28C    basis set group =>   1
Atom  29C    basis set group =>   1
Atom  30H    basis set group =>   3
Atom  31H    basis set group =>   3
Atom  32C    basis set group =>   1
Atom  33N    basis set group =>   2
Atom  34C    basis set group =>   1
Atom  35C    basis set group =>   1
Atom  36N    basis set group =>   2
Atom  37C    basis set group =>   1
Atom  38C    basis set group =>   1
Atom  39C    basis set group =>   1
Atom  40C    basis set group =>   1
Atom  41C    basis set group =>   1
Atom  42H    basis set group =>   3
Atom  43H    basis set group =>   3
Atom  44H    basis set group =>   3
Atom  45H    basis set group =>   3
Atom  46H    basis set group =>   3
Atom  47H    basis set group =>   3
-------------------------------
AUXILIARY BASIS SET INFORMATION
-------------------------------
There are 4 groups of distinct atoms

 Group   1 Type C   : 12s5p4d2f1g contracted to 6s4p3d1f1g pattern {711111/2111/211/2/1}
 Group   2 Type N   : 12s5p4d2f1g contracted to 6s4p3d1f1g pattern {711111/2111/211/2/1}
 Group   3 Type H   : 5s2p1d contracted to 3s1p1d pattern {311/2/1}
 Group   4 Type O   : 12s5p4d2f1g contracted to 6s4p3d1f1g pattern {711111/2111/211/2/1}

Atom   0C    basis set group =>   1
Atom   1C    basis set group =>   1
Atom   2C    basis set group =>   1
Atom   3C    basis set group =>   1
Atom   4C    basis set group =>   1
Atom   5C    basis set group =>   1
Atom   6C    basis set group =>   1
Atom   7C    basis set group =>   1
Atom   8N    basis set group =>   2
Atom   9C    basis set group =>   1
Atom  10C    basis set group =>   1
Atom  11C    basis set group =>   1
Atom  12C    basis set group =>   1
Atom  13H    basis set group =>   3
Atom  14H    basis set group =>   3
Atom  15H    basis set group =>   3
Atom  16H    basis set group =>   3
Atom  17H    basis set group =>   3
Atom  18H    basis set group =>   3
Atom  19H    basis set group =>   3
Atom  20C    basis set group =>   1
Atom  21N    basis set group =>   2
Atom  22O    basis set group =>   4
Atom  23C    basis set group =>   1
Atom  24C    basis set group =>   1
Atom  25C    basis set group =>   1
Atom  26N    basis set group =>   2
Atom  27O    basis set group =>   4
Atom  28C    basis set group =>   1
Atom  29C    basis set group =>   1
Atom  30H    basis set group =>   3
Atom  31H    basis set group =>   3
Atom  32C    basis set group =>   1
Atom  33N    basis set group =>   2
Atom  34C    basis set group =>   1
Atom  35C    basis set group =>   1
Atom  36N    basis set group =>   2
Atom  37C    basis set group =>   1
Atom  38C    basis set group =>   1
Atom  39C    basis set group =>   1
Atom  40C    basis set group =>   1
Atom  41C    basis set group =>   1
Atom  42H    basis set group =>   3
Atom  43H    basis set group =>   3
Atom  44H    basis set group =>   3
Atom  45H    basis set group =>   3
Atom  46H    basis set group =>   3
Atom  47H    basis set group =>   3
-------------------------
ECP PARAMETER INFORMATION
-------------------------



--------------------------------------------------------------------------
[[23536,1],1]: A high-performance Open MPI point-to-point messaging module
was unable to find any relevant network interfaces:

Module: OpenFabrics (openib)
  Host: cx1-103-2-3

Another transport will be used instead, although this may result in
lower performance.
--------------------------------------------------------------------------


           ************************************************************
           *        Program running with 24 parallel MPI-processes    *
           *              working on a common directory               *
           ************************************************************
------------------------------------------------------------------------------
                           ORCA GTO INTEGRAL CALCULATION
                           -- RI-GTO INTEGRALS CHOSEN --
------------------------------------------------------------------------------

                         BASIS SET STATISTICS AND STARTUP INFO

Gaussian basis set:
 # of primitive gaussian shells          ...  750
 # of primitive gaussian functions       ... 1638
 # of contracted shells                  ...  423
 # of contracted basis functions         ... 1113
 Highest angular momentum                ...    3
 Maximum contraction depth               ...    6
Auxiliary gaussian basis set:
 # of primitive gaussian shells          ...  912
 # of primitive gaussian functions       ... 2550
 # of contracted shells                  ...  570
 # of contracted aux-basis functions     ... 1782
 Highest angular momentum                ...    4
 Maximum contraction depth               ...    7
Ratio of auxiliary to basis functions    ...  1.60
Integral package used                  ... LIBINT
 One Electron integrals                  
   ECP integrals                         ... done
 Ordering auxiliary basis shells         ... done
 Integral threshhold             Thresh  ...  2.500e-11
 Primitive cut-off               TCut    ...  2.500e-12
 Pre-screening matrix                    ... done
 Shell pair data                         ... 
 Ordering of the shell pairs             ... done (   0.011 sec) 45600 of 89676 pairs
 Determination of significant pairs      ... done (   0.000 sec)
 Creation of shell pair data             ... done (   0.010 sec)
 Storage of shell pair data              ... done (   0.114 sec)
 Shell pair data done in (   0.135 sec)
 Computing two index integrals           ... done
 Cholesky decomposition of the V-matrix  ... done


Timings:
 Total evaluation time                   ...   4.468 sec (  0.074 min)
 One electron matrix time                ...   1.294 sec (  0.022 min) = 29.0%
 Schwartz matrix evaluation time         ...   1.907 sec (  0.032 min) = 42.7%
 Two index repulsion integral time       ...   0.572 sec (  0.010 min) = 12.8%
 Cholesky decomposition of V             ...   0.529 sec (  0.009 min) = 11.8%
 Three index repulsion integral time     ...   0.000 sec (  0.000 min) =  0.0%

--------------------------------------------------------------------------
[[25661,1],2]: A high-performance Open MPI point-to-point messaging module
was unable to find any relevant network interfaces:

Module: OpenFabrics (openib)
  Host: cx1-103-2-3

Another transport will be used instead, although this may result in
lower performance.
--------------------------------------------------------------------------


           ************************************************************
           *        Program running with 24 parallel MPI-processes    *
           *              working on a common directory               *
           ************************************************************
-------------------------------------------------------------------------------
                                 ORCA SCF
-------------------------------------------------------------------------------

------------
SCF SETTINGS
------------
Hamiltonian:
 Density Functional     Method          .... DFT(GTOs)
 Exchange Functional    Exchange        .... WB97X-D3
 Correlation Functional Correlation     .... WB97X-D3
 Gradients option       PostSCFGGA      .... off
 Hybrid DFT is turned on
   Fraction HF Exchange ScalHFX         ....  0.195728
   Scaling of DF-GGA-X  ScalDFX         ....  0.000000
   Scaling of DF-GGA-C  ScalDFC         ....  1.000000
   Scaling of DF-LDA-C  ScalLDAC        ....  1.000000
   Perturbative correction              ....  0.000000
 Long-range corrected/Screened/Range-Separated Hybrid DFT is turned on
   Amount of maximum screened exact exchange              ....  0.804272
   Range separation parameter mu (erf(mu*r12)/r12)        ....  0.250000
 RI-approximation to the Coulomb term is turned on
   Number of auxiliary basis functions  .... 1782
   RIJ-COSX (HFX calculated with COS-X)).... on


General Settings:
 Integral files         IntName         .... total
 Hartree-Fock type      HFTyp           .... RHF
 Total Charge           Charge          ....    0
 Multiplicity           Mult            ....    1
 Number of Electrons    NEL             ....  222
 Basis Dimension        Dim             .... 1113
 Nuclear Repulsion      ENuc            ....   2818.1510119930 Eh

Convergence Acceleration:
 DIIS                   CNVDIIS         .... on
   Start iteration      DIISMaxIt       ....    12
   Startup error        DIISStart       ....  0.200000
   # of expansion vecs  DIISMaxEq       ....     5
   Bias factor          DIISBfac        ....   1.050
   Max. coefficient     DIISMaxC        ....  10.000
 Newton-Raphson         CNVNR           .... off
 SOSCF                  CNVSOSCF        .... on
   Start iteration      SOSCFMaxIt      ....   150
   Startup grad/error   SOSCFStart      ....  0.003300
 Level Shifting         CNVShift        .... on
   Level shift para.    LevelShift      ....    0.2500
   Turn off err/grad.   ShiftErr        ....    0.0010
 Zerner damping         CNVZerner       .... off
 Static damping         CNVDamp         .... on
   Fraction old density DampFac         ....    0.7000
   Max. Damping (<1)    DampMax         ....    0.9800
   Min. Damping (>=0)   DampMin         ....    0.0000
   Turn off err/grad.   DampErr         ....    0.1000
 Fernandez-Rico         CNVRico         .... off

SCF Procedure:
 Maximum # iterations   MaxIter         ....   125
 SCF integral mode      SCFMode         .... Direct
   Integral package                     .... LIBINT
 Reset frequeny         DirectResetFreq ....    20
 Integral Threshold     Thresh          ....  2.500e-11 Eh
 Primitive CutOff       TCut            ....  2.500e-12 Eh

Convergence Tolerance:
 Convergence Check Mode ConvCheckMode   .... Total+1el-Energy
 Convergence forced     ConvForced      .... 1
 Energy Change          TolE            ....  1.000e-08 Eh
 1-El. energy change                    ....  1.000e-05 Eh
 Orbital Gradient       TolG            ....  1.000e-05
 Orbital Rotation angle TolX            ....  1.000e-05
 DIIS Error             TolErr          ....  5.000e-07


Diagonalization of the overlap matrix:
Smallest eigenvalue                        ... 6.058e-06
Time for diagonalization                   ...    0.359 sec
Threshold for overlap eigenvalues          ... 1.000e-08
Number of eigenvalues below threshold      ... 0
Time for construction of square roots      ...    0.430 sec
Total time needed                          ...    0.794 sec

-------------------
DFT GRID GENERATION
-------------------

General Integration Accuracy     IntAcc      ...  5.010
Radial Grid Type                 RadialGrid  ... Gauss-Chebyshev
Angular Grid (max. acc.)         AngularGrid ... Lebedev-434
Angular grid pruning method      GridPruning ... 3 (G Style)
Weight generation scheme         WeightScheme... Becke
Basis function cutoff            BFCut       ...    1.0000e-11
Integration weight cutoff        WCut        ...    1.0000e-14
Grids for H and He will be reduced by one unit

# of grid points (after initial pruning)     ... 453162 (   0.0 sec)
# of grid points (after weights+screening)   ... 397770 (   0.9 sec)
nearest neighbour list constructed           ...    0.0 sec
Grid point re-assignment to atoms done       ...    0.2 sec
Grid point division into batches done        ...    3.7 sec
Reduced shell lists constructed in    4.3 sec

Total number of grid points                  ...   397770
Total number of batches                      ...     6240
Average number of points per batch           ...       63
Average number of grid points per atom       ...     8287
Average number of shells per batch           ...   133.01 (31.44%)
Average number of basis functions per batch  ...   343.19 (30.83%)
Average number of large shells per batch     ...    91.74 (68.97%)
Average number of large basis fcns per batch ...   236.43 (68.89%)
Maximum spatial batch extension              ...  10.79, 17.96, 15.28 au
Average spatial batch extension              ...   0.06,  0.07,  0.07 au

Time for grid setup =    6.521 sec

------------------------------
INITIAL GUESS: MODEL POTENTIAL
------------------------------
Loading Hartree-Fock densities                     ... done
Calculating cut-offs                               ... done
Setting up the integral package                    ... done
Initializing the effective Hamiltonian             ... done
Starting the Coulomb interaction                   ... done (   0.3 sec)
Reading the grid                                   ... done
Mapping shells                                     ... done
Starting the XC term evaluation                    ... done (   2.0 sec)
  promolecular density results
     # of electrons  =    221.992815988
     EX              =   -186.419510558
     EC              =     -7.521879755
     EX+EC           =   -193.941390313
Transforming the Hamiltonian                       ... done (   0.2 sec)
Diagonalizing the Hamiltonian                      ... done (   0.3 sec)
Back transforming the eigenvectors                 ... done (   0.1 sec)
Now organizing SCF variables                       ... done
                      ------------------
                      INITIAL GUESS DONE (   9.7 sec)
                      ------------------
--------------------
COSX GRID GENERATION
--------------------

General Integration Accuracy     IntAcc      ...  3.340
Radial Grid Type                 RadialGrid  ... Gauss-Chebyshev
Angular Grid (max. acc.)         AngularGrid ... Lebedev-50
Angular grid pruning method      GridPruning ... 3 (G Style)
Weight generation scheme         WeightScheme... Becke
Basis function cutoff            BFCut       ...    1.0000e-11
Integration weight cutoff        WCut        ...    1.0000e-14
Grids for H and He will be reduced by one unit

# of grid points (after initial pruning)     ...  23870 (   0.0 sec)
# of grid points (after weights+screening)   ...  21827 (   0.1 sec)
nearest neighbour list constructed           ...    0.0 sec
Grid point re-assignment to atoms done       ...    0.0 sec
Grid point division into batches done        ...    0.0 sec
Reduced shell lists constructed in    0.1 sec

Total number of grid points                  ...    21827
Total number of batches                      ...      362
Average number of points per batch           ...       60
Average number of grid points per atom       ...      455
Average number of shells per batch           ...   146.71 (34.68%)
Average number of basis functions per batch  ...   384.47 (34.54%)
Average number of large shells per batch     ...   103.24 (70.37%)
Average number of large basis fcns per batch ...   272.53 (70.88%)
Maximum spatial batch extension              ...   3.92,  9.63, 15.04 au
Average spatial batch extension              ...   0.11,  0.19,  0.30 au

Overlap Fitting                  UseSFitting ... on
Constructing numerical overlap ... done (      0.1 sec)
Inverting numerical overlap    ... done (      0.1 sec)
Obtaining analytic overlap     ... done (      0.0 sec)
Final contraction and storage  ... done (      0.5 sec)


General Integration Accuracy     IntAcc      ...  3.670
Radial Grid Type                 RadialGrid  ... Gauss-Chebyshev
Angular Grid (max. acc.)         AngularGrid ... Lebedev-50
Angular grid pruning method      GridPruning ... 3 (G Style)
Weight generation scheme         WeightScheme... Becke
Basis function cutoff            BFCut       ...    1.0000e-11
Integration weight cutoff        WCut        ...    1.0000e-14
Grids for H and He will be reduced by one unit

# of grid points (after initial pruning)     ...  29886 (   0.0 sec)
# of grid points (after weights+screening)   ...  27231 (   0.1 sec)
nearest neighbour list constructed           ...    0.0 sec
Grid point re-assignment to atoms done       ...    0.0 sec
Grid point division into batches done        ...    0.0 sec
Reduced shell lists constructed in    0.1 sec

Total number of grid points                  ...    27231
Total number of batches                      ...      446
Average number of points per batch           ...       61
Average number of grid points per atom       ...      567
Average number of shells per batch           ...   144.80 (34.23%)
Average number of basis functions per batch  ...   377.30 (33.90%)
Average number of large shells per batch     ...   103.20 (71.27%)
Average number of large basis fcns per batch ...   272.20 (72.14%)
Maximum spatial batch extension              ...   4.16, 15.40, 33.45 au
Average spatial batch extension              ...   0.10,  0.17,  0.25 au

Overlap Fitting                  UseSFitting ... on
Constructing numerical overlap ... done (      0.1 sec)
Inverting numerical overlap    ... done (      0.1 sec)
Obtaining analytic overlap     ... done (      0.0 sec)
Final contraction and storage  ... done (      0.5 sec)


General Integration Accuracy     IntAcc      ...  4.010
Radial Grid Type                 RadialGrid  ... Gauss-Chebyshev
Angular Grid (max. acc.)         AngularGrid ... Lebedev-110
Angular grid pruning method      GridPruning ... 3 (G Style)
Weight generation scheme         WeightScheme... Becke
Basis function cutoff            BFCut       ...    1.0000e-11
Integration weight cutoff        WCut        ...    1.0000e-14
Grids for H and He will be reduced by one unit

# of grid points (after initial pruning)     ...  58372 (   0.0 sec)
# of grid points (after weights+screening)   ...  52659 (   0.1 sec)
nearest neighbour list constructed           ...    0.0 sec
Grid point re-assignment to atoms done       ...    0.0 sec
Grid point division into batches done        ...    0.1 sec
Reduced shell lists constructed in    0.2 sec

Total number of grid points                  ...    52659
Total number of batches                      ...      846
Average number of points per batch           ...       62
Average number of grid points per atom       ...     1097
Average number of shells per batch           ...   145.05 (34.29%)
Average number of basis functions per batch  ...   378.84 (34.04%)
Average number of large shells per batch     ...   101.84 (70.21%)
Average number of large basis fcns per batch ...   265.46 (70.07%)
Maximum spatial batch extension              ...   7.21, 20.33, 22.16 au
Average spatial batch extension              ...   0.10,  0.14,  0.19 au

Overlap Fitting                  UseSFitting ... on
Constructing numerical overlap ... done (      0.2 sec)
Inverting numerical overlap    ... done (      0.1 sec)
Obtaining analytic overlap     ... done (      0.0 sec)
Final contraction and storage  ... done (      0.5 sec)

Time for X-Grid setup             =    3.179 sec
--------------
SCF ITERATIONS
--------------
ITER       Energy         Delta-E        Max-DP      RMS-DP      [F,P]     Damp
               ***  Starting incremental Fock matrix formation  ***
  0  -1423.4768890189   0.000000000000 0.04230208  0.00056175  0.1569944 0.7000
  1  -1423.6748232686  -0.197934249673 0.06183996  0.00049895  0.0887391 0.7000
                               ***Turning on DIIS***
  2  -1423.7830578264  -0.108234557731 0.14979132  0.00115584  0.0502321 0.0000
  3  -1423.9700188655  -0.186961039149 0.02737703  0.00027117  0.0331552 0.0000
  4  -1423.9911267395  -0.021107873979 0.00590798  0.00009301  0.0054172 0.0000
  5  -1423.9918541016  -0.000727362080 0.00329075  0.00003694  0.0041622 0.0000
                      *** Initiating the SOSCF procedure ***
                           *** Shutting down DIIS ***
                      *** Re-Reading the Fockian *** 
                      *** Removing any level shift *** 
ITER      Energy       Delta-E        Grad      Rot      Max-DP    RMS-DP
  6  -1423.99202260  -0.0001685023  0.000821  0.000821  0.003507  0.000029
               *** Restarting incremental Fock matrix formation ***
  7  -1423.99209950  -0.0000768938  0.000379  0.000940  0.006157  0.000085
  8  -1423.99210416  -0.0000046624  0.000370  0.000463  0.002276  0.000028
  9  -1423.99211168  -0.0000075204  0.000066  0.000241  0.001286  0.000017
 10  -1423.99211205  -0.0000003718  0.000054  0.000104  0.000521  0.000006
 11  -1423.99211232  -0.0000002668  0.000014  0.000030  0.000107  0.000002
 12  -1423.99211238  -0.0000000613  0.000006  0.000013  0.000317  0.000002
 13  -1423.99211237   0.0000000115  0.000003  0.000013  0.000186  0.000002
                  ***Gradient check signals convergence***
              ***Rediagonalizing the Fockian in SOSCF/NRSCF***

               *****************************************************
               *                     SUCCESS                       *
               *           SCF CONVERGED AFTER  14 CYCLES          *
               *****************************************************

Old exchange energy                            =    -60.870109549 Eh
New exchange energy                            =    -60.870071738 Eh
Exchange energy change after final integration =      0.000037811 Eh
Total energy after final integration           =  -1423.992074512 Eh
Final COS-X integration done in                =    33.886 sec

----------------
TOTAL SCF ENERGY
----------------

Total Energy       :        -1423.99207451 Eh          -38748.79430 eV

Components:
Nuclear Repulsion  :         2818.15101199 Eh           76685.78767 eV
Electronic Energy  :        -4242.14308650 Eh         -115434.58196 eV
One Electron Energy:        -7533.47060891 Eh         -204996.15707 eV
Two Electron Energy:         3291.32752241 Eh           89561.57511 eV

Virial components:
Potential Energy   :        -2840.63257045 Eh          -77297.54197 eV
Kinetic Energy     :         1416.64049594 Eh           38548.74767 eV
Virial Ratio       :            2.00518945


DFT components:
N(Alpha)           :      111.000032002687 electrons
N(Beta)            :      111.000032002687 electrons
N(Total)           :      222.000064005374 electrons
E(XC)              :     -137.199116649629 Eh       

---------------
SCF CONVERGENCE
---------------

  Last Energy change         ...    4.6052e-08  Tolerance :   1.0000e-08
  Last MAX-Density change    ...    1.9781e-14  Tolerance :   1.0000e-07
  Last RMS-Density change    ...    1.0549e-16  Tolerance :   5.0000e-09
  Last Orbital Gradient      ...    1.1404e-06  Tolerance :   1.0000e-05
  Last Orbital Rotation      ...    5.3404e-06  Tolerance :   1.0000e-05

             **** THE GBW FILE WAS UPDATED (total.gbw) ****
             **** DENSITY FILE WAS UPDATED (total.scfp.tmp) ****
             **** ENERGY FILE WAS UPDATED (total.en.tmp) ****
----------------
ORBITAL ENERGIES
----------------

  NO   OCC          E(Eh)            E(eV) 
   0   2.0000     -19.339108      -526.2439 
   1   2.0000     -19.329561      -525.9841 
   2   2.0000     -14.482397      -394.0861 
   3   2.0000     -14.473253      -393.8372 
   4   2.0000     -14.472914      -393.8280 
   5   2.0000     -14.447861      -393.1463 
   6   2.0000     -14.442019      -392.9873 
   7   2.0000     -10.369894      -282.1791 
   8   2.0000     -10.367433      -282.1122 
   9   2.0000     -10.344963      -281.5008 
  10   2.0000     -10.339221      -281.3445 
  11   2.0000     -10.336891      -281.2811 
  12   2.0000     -10.336721      -281.2765 
  13   2.0000     -10.335267      -281.2369 
  14   2.0000     -10.333724      -281.1949 
  15   2.0000     -10.333486      -281.1885 
  16   2.0000     -10.329394      -281.0771 
  17   2.0000     -10.321457      -280.8611 
  18   2.0000     -10.321024      -280.8493 
  19   2.0000     -10.308844      -280.5179 
  20   2.0000     -10.306623      -280.4575 
  21   2.0000     -10.304362      -280.3959 
  22   2.0000     -10.302522      -280.3459 
  23   2.0000     -10.301610      -280.3211 
  24   2.0000     -10.301422      -280.3159 
  25   2.0000     -10.300124      -280.2806 
  26   2.0000     -10.297757      -280.2162 
  27   2.0000     -10.295432      -280.1529 
  28   2.0000     -10.293374      -280.0970 
  29   2.0000     -10.288061      -279.9524 
  30   2.0000     -10.286681      -279.9148 
  31   2.0000     -10.283842      -279.8376 
  32   2.0000     -10.275167      -279.6015 
  33   2.0000      -1.288181       -35.0532 
  34   2.0000      -1.277983       -34.7757 
  35   2.0000      -1.110701       -30.2237 
  36   2.0000      -1.100175       -29.9373 
  37   2.0000      -1.028909       -27.9980 
  38   2.0000      -1.012509       -27.5518 
  39   2.0000      -0.997139       -27.1335 
  40   2.0000      -0.985515       -26.8172 
  41   2.0000      -0.969408       -26.3789 
  42   2.0000      -0.966897       -26.3106 
  43   2.0000      -0.939288       -25.5593 
  44   2.0000      -0.917468       -24.9656 
  45   2.0000      -0.905260       -24.6334 
  46   2.0000      -0.888190       -24.1689 
  47   2.0000      -0.882133       -24.0041 
  48   2.0000      -0.874591       -23.7988 
  49   2.0000      -0.849495       -23.1159 
  50   2.0000      -0.844079       -22.9686 
  51   2.0000      -0.791187       -21.5293 
  52   2.0000      -0.781374       -21.2623 
  53   2.0000      -0.774934       -21.0870 
  54   2.0000      -0.764622       -20.8064 
  55   2.0000      -0.756248       -20.5785 
  56   2.0000      -0.735976       -20.0269 
  57   2.0000      -0.725334       -19.7373 
  58   2.0000      -0.717810       -19.5326 
  59   2.0000      -0.711784       -19.3686 
  60   2.0000      -0.703173       -19.1343 
  61   2.0000      -0.669247       -18.2111 
  62   2.0000      -0.666303       -18.1310 
  63   2.0000      -0.653027       -17.7698 
  64   2.0000      -0.638865       -17.3844 
  65   2.0000      -0.631085       -17.1727 
  66   2.0000      -0.619089       -16.8463 
  67   2.0000      -0.615944       -16.7607 
  68   2.0000      -0.608142       -16.5484 
  69   2.0000      -0.605996       -16.4900 
  70   2.0000      -0.599524       -16.3139 
  71   2.0000      -0.587645       -15.9906 
  72   2.0000      -0.576986       -15.7006 
  73   2.0000      -0.573042       -15.5933 
  74   2.0000      -0.566643       -15.4192 
  75   2.0000      -0.562291       -15.3007 
  76   2.0000      -0.551021       -14.9940 
  77   2.0000      -0.546944       -14.8831 
  78   2.0000      -0.545229       -14.8364 
  79   2.0000      -0.542808       -14.7706 
  80   2.0000      -0.534844       -14.5538 
  81   2.0000      -0.533102       -14.5064 
  82   2.0000      -0.529324       -14.4036 
  83   2.0000      -0.526720       -14.3328 
  84   2.0000      -0.523620       -14.2484 
  85   2.0000      -0.505807       -13.7637 
  86   2.0000      -0.496719       -13.5164 
  87   2.0000      -0.476444       -12.9647 
  88   2.0000      -0.475442       -12.9374 
  89   2.0000      -0.472772       -12.8648 
  90   2.0000      -0.471678       -12.8350 
  91   2.0000      -0.470743       -12.8096 
  92   2.0000      -0.468161       -12.7393 
  93   2.0000      -0.448596       -12.2069 
  94   2.0000      -0.446919       -12.1613 
  95   2.0000      -0.444391       -12.0925 
  96   2.0000      -0.438484       -11.9318 
  97   2.0000      -0.428706       -11.6657 
  98   2.0000      -0.421606       -11.4725 
  99   2.0000      -0.411205       -11.1895 
 100   2.0000      -0.403281       -10.9738 
 101   2.0000      -0.395209       -10.7542 
 102   2.0000      -0.392811       -10.6889 
 103   2.0000      -0.374205       -10.1826 
 104   2.0000      -0.351468        -9.5639 
 105   2.0000      -0.344585        -9.3766 
 106   2.0000      -0.340382        -9.2623 
 107   2.0000      -0.335746        -9.1361 
 108   2.0000      -0.320836        -8.7304 
 109   2.0000      -0.303868        -8.2687 
 110   2.0000      -0.292747        -7.9661 
 111   0.0000      -0.021182        -0.5764 
 112   0.0000      -0.001524        -0.0415 
 113   0.0000       0.021879         0.5953 
 114   0.0000       0.035512         0.9663 
 115   0.0000       0.047816         1.3011 
 116   0.0000       0.051973         1.4143 
 117   0.0000       0.080737         2.1970 
 118   0.0000       0.093329         2.5396 
 119   0.0000       0.106223         2.8905 
 120   0.0000       0.112064         3.0494 
 121   0.0000       0.115622         3.1462 
 122   0.0000       0.125793         3.4230 
 123   0.0000       0.129710         3.5296 
 124   0.0000       0.134946         3.6721 
 125   0.0000       0.141749         3.8572 
 126   0.0000       0.148311         4.0358 
 127   0.0000       0.153710         4.1826 
 128   0.0000       0.157336         4.2813 
 129   0.0000       0.159376         4.3368 
 130   0.0000       0.162406         4.4193 
 131   0.0000       0.167481         4.5574 
 132   0.0000       0.171556         4.6683 
 133   0.0000       0.175782         4.7833 
 134   0.0000       0.180263         4.9052 
 135   0.0000       0.180920         4.9231 
 136   0.0000       0.183505         4.9934 
 137   0.0000       0.187726         5.1083 
 138   0.0000       0.193754         5.2723 
 139   0.0000       0.199346         5.4245 
 140   0.0000       0.202877         5.5206 
 141   0.0000       0.210736         5.7344 
 142   0.0000       0.210928         5.7397 
 143   0.0000       0.221593         6.0298 
 144   0.0000       0.227525         6.1913 
 145   0.0000       0.230620         6.2755 
 146   0.0000       0.232078         6.3152 
 147   0.0000       0.237895         6.4734 
 148   0.0000       0.248030         6.7492 
 149   0.0000       0.254597         6.9279 
 150   0.0000       0.255402         6.9498 
 151   0.0000       0.257653         7.0111 
 152   0.0000       0.259545         7.0626 
 153   0.0000       0.263860         7.1800 
 154   0.0000       0.267162         7.2698 
 155   0.0000       0.268919         7.3177 
 156   0.0000       0.273563         7.4440 
 157   0.0000       0.276393         7.5210 
 158   0.0000       0.280630         7.6363 
 159   0.0000       0.283235         7.7072 
 160   0.0000       0.283667         7.7190 
 161   0.0000       0.284776         7.7491 
 162   0.0000       0.290657         7.9092 
 163   0.0000       0.292388         7.9563 
 164   0.0000       0.295947         8.0531 
 165   0.0000       0.297025         8.0824 
 166   0.0000       0.300166         8.1679 
 167   0.0000       0.302043         8.2190 
 168   0.0000       0.307179         8.3588 
 169   0.0000       0.310506         8.4493 
 170   0.0000       0.314916         8.5693 
 171   0.0000       0.316308         8.6072 
 172   0.0000       0.323705         8.8085 
 173   0.0000       0.326528         8.8853 
 174   0.0000       0.332968         9.0605 
 175   0.0000       0.336653         9.1608 
 176   0.0000       0.337481         9.1833 
 177   0.0000       0.343000         9.3335 
 178   0.0000       0.343837         9.3563 
 179   0.0000       0.347951         9.4682 
 180   0.0000       0.348581         9.4854 
 181   0.0000       0.354942         9.6585 
 182   0.0000       0.355704         9.6792 
 183   0.0000       0.362297         9.8586 
 184   0.0000       0.364193         9.9102 
 185   0.0000       0.368331        10.0228 
 186   0.0000       0.369814        10.0632 
 187   0.0000       0.373016        10.1503 
 188   0.0000       0.373445        10.1620 
 189   0.0000       0.378127        10.2894 
 190   0.0000       0.383283        10.4297 
 191   0.0000       0.387878        10.5547 
 192   0.0000       0.389027        10.5860 
 193   0.0000       0.392431        10.6786 
 194   0.0000       0.395044        10.7497 
 195   0.0000       0.400130        10.8881 
 196   0.0000       0.402556        10.9541 
 197   0.0000       0.406037        11.0488 
 198   0.0000       0.410081        11.1589 
 199   0.0000       0.414696        11.2844 
 200   0.0000       0.419850        11.4247 
 201   0.0000       0.421790        11.4775 
 202   0.0000       0.427346        11.6287 
 203   0.0000       0.428593        11.6626 
 204   0.0000       0.433238        11.7890 
 205   0.0000       0.433909        11.8073 
 206   0.0000       0.435299        11.8451 
 207   0.0000       0.438712        11.9380 
 208   0.0000       0.440145        11.9769 
 209   0.0000       0.445406        12.1201 
 210   0.0000       0.448223        12.1968 
 211   0.0000       0.453857        12.3501 
 212   0.0000       0.454752        12.3744 
 213   0.0000       0.459196        12.4954 
 214   0.0000       0.462697        12.5906 
 215   0.0000       0.464771        12.6471 
 216   0.0000       0.468214        12.7407 
 217   0.0000       0.469891        12.7864 
 218   0.0000       0.470652        12.8071 
 219   0.0000       0.476054        12.9541 
 220   0.0000       0.477824        13.0022 
 221   0.0000       0.481350        13.0982 
 222   0.0000       0.486459        13.2372 
 223   0.0000       0.488428        13.2908 
 224   0.0000       0.489580        13.3221 
 225   0.0000       0.492038        13.3890 
 226   0.0000       0.496199        13.5023 
 227   0.0000       0.500568        13.6211 
 228   0.0000       0.501873        13.6567 
 229   0.0000       0.502640        13.6775 
 230   0.0000       0.507224        13.8023 
 231   0.0000       0.511516        13.9190 
 232   0.0000       0.513197        13.9648 
 233   0.0000       0.519887        14.1468 
 234   0.0000       0.523221        14.2376 
 235   0.0000       0.528866        14.3912 
 236   0.0000       0.532411        14.4877 
 237   0.0000       0.533660        14.5216 
 238   0.0000       0.534177        14.5357 
 239   0.0000       0.541619        14.7382 
 240   0.0000       0.544055        14.8045 
 241   0.0000       0.548604        14.9283 
 242   0.0000       0.549668        14.9572 
 243   0.0000       0.551698        15.0125 
 244   0.0000       0.554868        15.0987 
 245   0.0000       0.556389        15.1401 
 246   0.0000       0.559332        15.2202 
 247   0.0000       0.562640        15.3102 
 248   0.0000       0.565940        15.4000 
 249   0.0000       0.571440        15.5497 
 250   0.0000       0.578616        15.7449 
 251   0.0000       0.582957        15.8631 
 252   0.0000       0.586431        15.9576 
 253   0.0000       0.587389        15.9837 
 254   0.0000       0.591376        16.0922 
 255   0.0000       0.597894        16.2695 
 256   0.0000       0.603049        16.4098 
 257   0.0000       0.607134        16.5209 
 258   0.0000       0.613151        16.6847 
 259   0.0000       0.614869        16.7314 
 260   0.0000       0.617353        16.7990 
 261   0.0000       0.626692        17.0532 
 262   0.0000       0.632639        17.2150 
 263   0.0000       0.636478        17.3195 
 264   0.0000       0.639244        17.3947 
 265   0.0000       0.647684        17.6244 
 266   0.0000       0.648363        17.6429 
 267   0.0000       0.661781        18.0080 
 268   0.0000       0.663906        18.0658 
 269   0.0000       0.666415        18.1341 
 270   0.0000       0.673292        18.3212 
 271   0.0000       0.674840        18.3633 
 272   0.0000       0.679491        18.4899 
 273   0.0000       0.682968        18.5845 
 274   0.0000       0.685998        18.6670 
 275   0.0000       0.687906        18.7189 
 276   0.0000       0.692616        18.8470 
 277   0.0000       0.695436        18.9238 
 278   0.0000       0.698430        19.0052 
 279   0.0000       0.700821        19.0703 
 280   0.0000       0.704066        19.1586 
 281   0.0000       0.707500        19.2521 
 282   0.0000       0.711249        19.3541 
 283   0.0000       0.713510        19.4156 
 284   0.0000       0.719361        19.5748 
 285   0.0000       0.726235        19.7619 
 286   0.0000       0.728199        19.8153 
 287   0.0000       0.733319        19.9546 
 288   0.0000       0.736677        20.0460 
 289   0.0000       0.739291        20.1171 
 290   0.0000       0.741883        20.1877 
 291   0.0000       0.747112        20.3299 
 292   0.0000       0.750588        20.4245 
 293   0.0000       0.753375        20.5004 
 294   0.0000       0.756849        20.5949 
 295   0.0000       0.763159        20.7666 
 296   0.0000       0.768505        20.9121 
 297   0.0000       0.771194        20.9852 
 298   0.0000       0.776169        21.1206 
 299   0.0000       0.780793        21.2465 
 300   0.0000       0.783335        21.3156 
 301   0.0000       0.785904        21.3855 
 302   0.0000       0.791067        21.5260 
 303   0.0000       0.792281        21.5591 
 304   0.0000       0.797127        21.6909 
 305   0.0000       0.799265        21.7491 
 306   0.0000       0.802382        21.8339 
 307   0.0000       0.802697        21.8425 
 308   0.0000       0.806936        21.9578 
 309   0.0000       0.810022        22.0418 
 310   0.0000       0.811323        22.0772 
 311   0.0000       0.820278        22.3209 
 312   0.0000       0.823088        22.3974 
 313   0.0000       0.828413        22.5423 
 314   0.0000       0.831262        22.6198 
 315   0.0000       0.836784        22.7701 
 316   0.0000       0.839559        22.8455 
 317   0.0000       0.842637        22.9293 
 318   0.0000       0.852493        23.1975 
 319   0.0000       0.854747        23.2589 
 320   0.0000       0.859612        23.3912 
 321   0.0000       0.863939        23.5090 
 322   0.0000       0.868509        23.6333 
 323   0.0000       0.876839        23.8600 
 324   0.0000       0.878877        23.9155 
 325   0.0000       0.880985        23.9728 
 326   0.0000       0.891229        24.2516 
 327   0.0000       0.892293        24.2805 
 328   0.0000       0.905349        24.6358 
 329   0.0000       0.906285        24.6613 
 330   0.0000       0.910476        24.7753 
 331   0.0000       0.913060        24.8456 
 332   0.0000       0.919735        25.0273 
 333   0.0000       0.920219        25.0404 
 334   0.0000       0.923417        25.1274 
 335   0.0000       0.925798        25.1923 
 336   0.0000       0.934629        25.4326 
 337   0.0000       0.939349        25.5610 
 338   0.0000       0.945617        25.7316 
 339   0.0000       0.947674        25.7875 
 340   0.0000       0.951699        25.8970 
 341   0.0000       0.957827        26.0638 
 342   0.0000       0.959696        26.1147 
 343   0.0000       0.966588        26.3022 
 344   0.0000       0.969588        26.3838 
 345   0.0000       0.985519        26.8173 
 346   0.0000       0.987529        26.8720 
 347   0.0000       0.989645        26.9296 
 348   0.0000       0.991392        26.9771 
 349   0.0000       0.998518        27.1711 
 350   0.0000       1.002552        27.2808 
 351   0.0000       1.010386        27.4940 
 352   0.0000       1.015805        27.6415 
 353   0.0000       1.016612        27.6634 
 354   0.0000       1.029562        28.0158 
 355   0.0000       1.032748        28.1025 
 356   0.0000       1.037754        28.2387 
 357   0.0000       1.045900        28.4604 
 358   0.0000       1.051751        28.6196 
 359   0.0000       1.057642        28.7799 
 360   0.0000       1.059059        28.8185 
 361   0.0000       1.066569        29.0228 
 362   0.0000       1.074400        29.2359 
 363   0.0000       1.081298        29.4236 
 364   0.0000       1.083880        29.4939 
 365   0.0000       1.095129        29.8000 
 366   0.0000       1.099553        29.9204 
 367   0.0000       1.112653        30.2768 
 368   0.0000       1.117262        30.4022 
 369   0.0000       1.120834        30.4995 
 370   0.0000       1.125059        30.6144 
 371   0.0000       1.134361        30.8675 
 372   0.0000       1.137265        30.9465 
 373   0.0000       1.143215        31.1085 
 374   0.0000       1.150621        31.3100 
 375   0.0000       1.160521        31.5794 
 376   0.0000       1.161331        31.6014 
 377   0.0000       1.164918        31.6990 
 378   0.0000       1.170436        31.8492 
 379   0.0000       1.178945        32.0807 
 380   0.0000       1.185043        32.2467 
 381   0.0000       1.189709        32.3736 
 382   0.0000       1.192478        32.4490 
 383   0.0000       1.205684        32.8083 
 384   0.0000       1.212012        32.9805 
 385   0.0000       1.222550        33.2673 
 386   0.0000       1.223095        33.2821 
 387   0.0000       1.229351        33.4524 
 388   0.0000       1.233922        33.5767 
 389   0.0000       1.240707        33.7614 
 390   0.0000       1.246393        33.9161 
 391   0.0000       1.248156        33.9640 
 392   0.0000       1.255284        34.1580 
 393   0.0000       1.258632        34.2491 
 394   0.0000       1.269477        34.5442 
 395   0.0000       1.270536        34.5731 
 396   0.0000       1.273194        34.6454 
 397   0.0000       1.291831        35.1525 
 398   0.0000       1.292750        35.1775 
 399   0.0000       1.294793        35.2331 
 400   0.0000       1.298581        35.3362 
 401   0.0000       1.302572        35.4448 
 402   0.0000       1.315135        35.7866 
 403   0.0000       1.319757        35.9124 
 404   0.0000       1.323044        36.0019 
 405   0.0000       1.331353        36.2280 
 406   0.0000       1.332221        36.2516 
 407   0.0000       1.340042        36.4644 
 408   0.0000       1.342627        36.5348 
 409   0.0000       1.347574        36.6694 
 410   0.0000       1.353435        36.8288 
 411   0.0000       1.359959        37.0064 
 412   0.0000       1.362154        37.0661 
 413   0.0000       1.372289        37.3419 
 414   0.0000       1.373826        37.3837 
 415   0.0000       1.382317        37.6148 
 416   0.0000       1.396797        38.0088 
 417   0.0000       1.397149        38.0183 
 418   0.0000       1.402073        38.1524 
 419   0.0000       1.405981        38.2587 
 420   0.0000       1.412470        38.4353 
 421   0.0000       1.416009        38.5316 
 422   0.0000       1.420167        38.6447 
 423   0.0000       1.430284        38.9200 
 424   0.0000       1.435773        39.0694 
 425   0.0000       1.436882        39.0996 
 426   0.0000       1.447029        39.3757 
 427   0.0000       1.449474        39.4422 
 428   0.0000       1.451419        39.4951 
 429   0.0000       1.463437        39.8221 
 430   0.0000       1.467715        39.9386 
 431   0.0000       1.477028        40.1920 
 432   0.0000       1.485458        40.4214 
 433   0.0000       1.487270        40.4707 
 434   0.0000       1.492947        40.6252 
 435   0.0000       1.497403        40.7464 
 436   0.0000       1.502419        40.8829 
 437   0.0000       1.504098        40.9286 
 438   0.0000       1.509924        41.0871 
 439   0.0000       1.512299        41.1517 
 440   0.0000       1.513528        41.1852 
 441   0.0000       1.518887        41.3310 
 442   0.0000       1.527937        41.5773 
 443   0.0000       1.531895        41.6850 
 444   0.0000       1.537482        41.8370 
 445   0.0000       1.546353        42.0784 
 446   0.0000       1.553936        42.2847 
 447   0.0000       1.555748        42.3340 
 448   0.0000       1.563861        42.5548 
 449   0.0000       1.566141        42.6169 
 450   0.0000       1.570522        42.7361 
 451   0.0000       1.576450        42.8974 
 452   0.0000       1.580329        43.0029 
 453   0.0000       1.587169        43.1891 
 454   0.0000       1.590727        43.2859 
 455   0.0000       1.591075        43.2953 
 456   0.0000       1.596151        43.4335 
 457   0.0000       1.599749        43.5314 
 458   0.0000       1.605035        43.6752 
 459   0.0000       1.607313        43.7372 
 460   0.0000       1.610440        43.8223 
 461   0.0000       1.612541        43.8795 
 462   0.0000       1.619397        44.0660 
 463   0.0000       1.620115        44.0856 
 464   0.0000       1.638879        44.5962 
 465   0.0000       1.641046        44.6551 
 466   0.0000       1.643126        44.7117 
 467   0.0000       1.650905        44.9234 
 468   0.0000       1.653884        45.0045 
 469   0.0000       1.660714        45.1903 
 470   0.0000       1.661226        45.2042 
 471   0.0000       1.667675        45.3797 
 472   0.0000       1.675642        45.5965 
 473   0.0000       1.680353        45.7247 
 474   0.0000       1.686222        45.8844 
 475   0.0000       1.692277        46.0492 
 476   0.0000       1.695127        46.1268 
 477   0.0000       1.698316        46.2135 
 478   0.0000       1.704222        46.3742 
 479   0.0000       1.708799        46.4988 
 480   0.0000       1.718419        46.7606 
 481   0.0000       1.728829        47.0438 
 482   0.0000       1.732158        47.1344 
 483   0.0000       1.742320        47.4109 
 484   0.0000       1.746355        47.5207 
 485   0.0000       1.750482        47.6330 
 486   0.0000       1.759870        47.8885 
 487   0.0000       1.761021        47.9198 
 488   0.0000       1.766254        48.0622 
 489   0.0000       1.772508        48.2324 
 490   0.0000       1.776522        48.3416 
 491   0.0000       1.782465        48.5033 
 492   0.0000       1.785901        48.5968 
 493   0.0000       1.790584        48.7243 
 494   0.0000       1.798224        48.9322 
 495   0.0000       1.799980        48.9799 
 496   0.0000       1.808630        49.2153 
 497   0.0000       1.810996        49.2797 
 498   0.0000       1.812791        49.3285 
 499   0.0000       1.818736        49.4903 
 500   0.0000       1.823790        49.6278 
 501   0.0000       1.833170        49.8831 
 502   0.0000       1.836317        49.9687 
 503   0.0000       1.845288        50.2128 
 504   0.0000       1.850219        50.3470 
 505   0.0000       1.851239        50.3748 
 506   0.0000       1.857983        50.5583 
 507   0.0000       1.864803        50.7439 
 508   0.0000       1.872989        50.9666 
 509   0.0000       1.883407        51.2501 
 510   0.0000       1.896012        51.5931 
 511   0.0000       1.901981        51.7555 
 512   0.0000       1.908406        51.9304 
 513   0.0000       1.914406        52.0936 
 514   0.0000       1.924107        52.3576 
 515   0.0000       1.932695        52.5913 
 516   0.0000       1.941681        52.8358 
 517   0.0000       1.949168        53.0396 
 518   0.0000       1.955071        53.2002 
 519   0.0000       1.958741        53.3001 
 520   0.0000       1.964264        53.4504 
 521   0.0000       1.968818        53.5743 
 522   0.0000       1.975873        53.7662 
 523   0.0000       1.980140        53.8823 
 524   0.0000       1.990263        54.1578 
 525   0.0000       1.993022        54.2329 
 526   0.0000       1.995682        54.3053 
 527   0.0000       2.003796        54.5261 
 528   0.0000       2.016390        54.8688 
 529   0.0000       2.018457        54.9250 
 530   0.0000       2.019872        54.9635 
 531   0.0000       2.025599        55.1194 
 532   0.0000       2.028849        55.2078 
 533   0.0000       2.046520        55.6886 
 534   0.0000       2.055640        55.9368 
 535   0.0000       2.059246        56.0349 
 536   0.0000       2.066905        56.2433 
 537   0.0000       2.077731        56.5379 
 538   0.0000       2.082384        56.6645 
 539   0.0000       2.085695        56.7546 
 540   0.0000       2.092987        56.9531 
 541   0.0000       2.097792        57.0838 
 542   0.0000       2.098330        57.0985 
 543   0.0000       2.111421        57.4547 
 544   0.0000       2.117150        57.6106 
 545   0.0000       2.122674        57.7609 
 546   0.0000       2.129355        57.9427 
 547   0.0000       2.135213        58.1021 
 548   0.0000       2.146405        58.4067 
 549   0.0000       2.149074        58.4793 
 550   0.0000       2.156511        58.6817 
 551   0.0000       2.164235        58.8918 
 552   0.0000       2.169164        59.0259 
 553   0.0000       2.175061        59.1864 
 554   0.0000       2.178282        59.2741 
 555   0.0000       2.188796        59.5602 
 556   0.0000       2.191752        59.6406 
 557   0.0000       2.197882        59.8074 
 558   0.0000       2.200774        59.8861 
 559   0.0000       2.211603        60.1808 
 560   0.0000       2.218349        60.3643 
 561   0.0000       2.222198        60.4691 
 562   0.0000       2.229790        60.6757 
 563   0.0000       2.242263        61.0151 
 564   0.0000       2.243027        61.0359 
 565   0.0000       2.247174        61.1487 
 566   0.0000       2.256563        61.4042 
 567   0.0000       2.264214        61.6124 
 568   0.0000       2.272662        61.8423 
 569   0.0000       2.278333        61.9966 
 570   0.0000       2.285870        62.2017 
 571   0.0000       2.295875        62.4739 
 572   0.0000       2.305452        62.7345 
 573   0.0000       2.312977        62.9393 
 574   0.0000       2.316361        63.0314 
 575   0.0000       2.320532        63.1449 
 576   0.0000       2.324065        63.2410 
 577   0.0000       2.331361        63.4396 
 578   0.0000       2.333790        63.5057 
 579   0.0000       2.343722        63.7759 
 580   0.0000       2.346715        63.8573 
 581   0.0000       2.353873        64.0521 
 582   0.0000       2.369312        64.4722 
 583   0.0000       2.375337        64.6362 
 584   0.0000       2.378516        64.7227 
 585   0.0000       2.382983        64.8443 
 586   0.0000       2.392470        65.1024 
 587   0.0000       2.401999        65.3617 
 588   0.0000       2.407330        65.5068 
 589   0.0000       2.422165        65.9104 
 590   0.0000       2.425630        66.0048 
 591   0.0000       2.429267        66.1037 
 592   0.0000       2.432832        66.2007 
 593   0.0000       2.436212        66.2927 
 594   0.0000       2.447087        66.5886 
 595   0.0000       2.450922        66.6930 
 596   0.0000       2.458221        66.8916 
 597   0.0000       2.468485        67.1709 
 598   0.0000       2.484907        67.6178 
 599   0.0000       2.492105        67.8136 
 600   0.0000       2.507621        68.2358 
 601   0.0000       2.512704        68.3741 
 602   0.0000       2.527306        68.7715 
 603   0.0000       2.528616        68.8071 
 604   0.0000       2.534762        68.9744 
 605   0.0000       2.545767        69.2738 
 606   0.0000       2.549826        69.3843 
 607   0.0000       2.561599        69.7046 
 608   0.0000       2.573321        70.0236 
 609   0.0000       2.577858        70.1471 
 610   0.0000       2.583328        70.2959 
 611   0.0000       2.586566        70.3841 
 612   0.0000       2.599706        70.7416 
 613   0.0000       2.612269        71.0834 
 614   0.0000       2.618130        71.2429 
 615   0.0000       2.626521        71.4713 
 616   0.0000       2.629907        71.5634 
 617   0.0000       2.635191        71.7072 
 618   0.0000       2.645558        71.9893 
 619   0.0000       2.655594        72.2624 
 620   0.0000       2.658563        72.3432 
 621   0.0000       2.663585        72.4798 
 622   0.0000       2.668801        72.6218 
 623   0.0000       2.676450        72.8299 
 624   0.0000       2.681418        72.9651 
 625   0.0000       2.687026        73.1177 
 626   0.0000       2.688495        73.1577 
 627   0.0000       2.690996        73.2257 
 628   0.0000       2.696475        73.3748 
 629   0.0000       2.697974        73.4156 
 630   0.0000       2.708809        73.7104 
 631   0.0000       2.710445        73.7550 
 632   0.0000       2.718307        73.9689 
 633   0.0000       2.724262        74.1309 
 634   0.0000       2.729137        74.2636 
 635   0.0000       2.733697        74.3877 
 636   0.0000       2.740197        74.5646 
 637   0.0000       2.743839        74.6637 
 638   0.0000       2.747565        74.7651 
 639   0.0000       2.752789        74.9072 
 640   0.0000       2.764563        75.2276 
 641   0.0000       2.771146        75.4067 
 642   0.0000       2.773895        75.4815 
 643   0.0000       2.776834        75.5615 
 644   0.0000       2.780239        75.6541 
 645   0.0000       2.787717        75.8576 
 646   0.0000       2.792003        75.9743 
 647   0.0000       2.799774        76.1857 
 648   0.0000       2.802542        76.2610 
 649   0.0000       2.804294        76.3087 
 650   0.0000       2.810681        76.4825 
 651   0.0000       2.813255        76.5526 
 652   0.0000       2.819936        76.7344 
 653   0.0000       2.825418        76.8835 
 654   0.0000       2.826358        76.9091 
 655   0.0000       2.839073        77.2551 
 656   0.0000       2.842647        77.3524 
 657   0.0000       2.848120        77.5013 
 658   0.0000       2.850462        77.5650 
 659   0.0000       2.852251        77.6137 
 660   0.0000       2.862110        77.8820 
 661   0.0000       2.864376        77.9436 
 662   0.0000       2.873191        78.1835 
 663   0.0000       2.874250        78.2123 
 664   0.0000       2.879257        78.3486 
 665   0.0000       2.882815        78.4454 
 666   0.0000       2.885529        78.5192 
 667   0.0000       2.887863        78.5828 
 668   0.0000       2.892742        78.7155 
 669   0.0000       2.899767        78.9067 
 670   0.0000       2.904830        79.0444 
 671   0.0000       2.908594        79.1469 
 672   0.0000       2.912565        79.2549 
 673   0.0000       2.917470        79.3884 
 674   0.0000       2.920536        79.4718 
 675   0.0000       2.923708        79.5581 
 676   0.0000       2.931543        79.7714 
 677   0.0000       2.934370        79.8483 
 678   0.0000       2.938302        79.9553 
 679   0.0000       2.945665        80.1556 
 680   0.0000       2.947410        80.2031 
 681   0.0000       2.958858        80.5146 
 682   0.0000       2.959915        80.5434 
 683   0.0000       2.968254        80.7703 
 684   0.0000       2.971366        80.8550 
 685   0.0000       2.976522        80.9953 
 686   0.0000       2.979496        81.0762 
 687   0.0000       2.982314        81.1529 
 688   0.0000       2.986256        81.2602 
 689   0.0000       2.988519        81.3217 
 690   0.0000       2.998587        81.5957 
 691   0.0000       3.002855        81.7118 
 692   0.0000       3.010465        81.9189 
[...]
  84   8.180     151.6   0.005681   0.005562  -8.967813  -8.970714     0.42 (  66->  74)    0.06 (  72->  79)    0.04 (  73->  79)
  85   8.209     151.0   0.026734   0.025863   6.332445   6.113436     0.07 (  66->  74)    0.06 (  49->  76)    0.05 (  71->  92)
  86   8.214     150.9   0.075115   0.076781  -25.553971  -25.043329     0.12 (  71->  92)    0.12 (  63->  77)    0.07 (  67->  75)
  87   8.220     150.8   0.030624   0.029008  17.304128  16.791591     0.10 (  70->  82)    0.05 (  73->  93)    0.04 (  66->  82)
  88   8.236     150.5   0.004293   0.004478  -3.628808  -3.887289     0.50 (  67->  75)    0.17 (  67->  76)    0.06 (  71->  92)
  89   8.253     150.2   0.027757   0.025831  -34.387880  -32.974071     0.46 (  72->  79)    0.06 (  49->  76)    0.04 (  73->  79)
  90   8.270     149.9   0.011466   0.010102  -17.383911  -16.957882     0.17 (  72->  79)    0.14 (  66->  74)    0.09 (  49->  76)
  91   8.308     149.2   0.149665   0.149701  91.243485  91.681357     0.06 (  69->  92)    0.06 (  64->  78)    0.06 (  66->  80)
  92   8.316     149.1   0.014852   0.014933  -3.012684  -4.309961     0.08 (  72->  93)    0.06 (  64->  78)    0.05 (  69->  92)
  93   8.330     148.8   0.018824   0.019317  -9.219821  -9.986458     0.09 (  61->  77)    0.08 (  65->  77)    0.06 (  72->  93)
  94   8.335     148.8   0.005589   0.006498  -6.241899  -5.845837     0.10 (  69->  92)    0.08 (  61->  77)    0.06 (  65->  77)
  95   8.353     148.4   0.007239   0.006195   4.343540   3.773363     0.19 (  54->  75)    0.11 (  56->  78)    0.06 (  59->  78)
  96   8.405     147.5   0.020720   0.019143  10.923108  12.732362     0.13 (  73->  95)    0.05 (  67->  85)    0.04 (  67->  83)
  97   8.408     147.5   0.002844   0.002588  -7.071475  -6.948309     0.11 (  67->  85)    0.09 (  67->  83)    0.08 (  67->  87)
  98   8.437     146.9   0.024764   0.022762   5.051896   5.455905     0.18 (  63->  79)    0.10 (  71->  86)    0.05 (  71->  85)
  99   8.462     146.5   0.016761   0.017210  34.689562  35.408980     0.06 (  57->  75)    0.06 (  64->  76)    0.05 (  54->  75)
 100   8.484     146.1   0.012897   0.011548  25.387271  24.539418     0.11 (  72->  94)    0.11 (  72->  96)    0.07 (  70->  82)
 101   8.500     145.9   0.011591   0.012110  -4.002795  -4.676366     0.06 (  48->  75)    0.06 (  57->  75)    0.06 (  49->  75)
 102   8.524     145.4   0.015768   0.013623   8.981875   6.435689     0.06 (  68->  81)    0.04 (  70->  84)    0.03 (  71->  78)
 103   8.549     145.0   0.023028   0.019907  -2.816769  -2.985936     0.22 (  62->  74)    0.04 (  65->  74)    0.04 (  61->  74)
 104   8.565     144.8   0.003478   0.003049  -1.327974  -1.081004     0.20 (  62->  74)    0.20 (  71->  78)    0.04 (  70->  78)
 105   8.569     144.7   0.014680   0.012504  33.636663  32.142938     0.12 (  71->  78)    0.07 (  62->  74)    0.03 (  70->  91)
 106   8.590     144.3   0.028716   0.026762  13.293354  13.137586     0.17 (  73-> 101)    0.08 (  73-> 100)    0.04 (  73->  96)
 107   8.607     144.0   0.006357   0.005936  -8.118663  -7.823917     0.14 (  71->  78)    0.07 (  68->  78)    0.06 (  70->  77)
 108   8.658     143.2   0.346578   0.330993  -8.007033  -7.198999     0.19 (  66->  81)    0.10 (  60->  74)    0.06 (  66->  80)
 109   8.669     143.0   0.020126   0.018453  -33.411240  -31.718320     0.18 (  70->  77)    0.07 (  60->  74)    0.05 (  69->  77)
 110   8.691     142.7   0.063305   0.057358  26.614489  25.473386     0.07 (  67->  86)    0.07 (  58->  77)    0.05 (  50->  75)
 111   8.702     142.5   0.040951   0.040015  -4.333715  -3.410363     0.15 (  70->  77)    0.05 (  66->  80)    0.04 (  50->  75)
 112   8.714     142.3   0.016812   0.016235   9.701320  10.783096     0.09 (  66->  81)    0.07 (  69->  98)    0.04 (  59->  80)
 113   8.715     142.3   0.005556   0.005367   9.653859   8.699971     0.06 (  55->  79)    0.05 (  69->  98)    0.05 (  59->  80)
 114   8.726     142.1   0.008639   0.008098   1.006051   0.629398     0.21 (  55->  79)    0.15 (  45->  74)    0.09 (  43->  74)
 115   8.742     141.8   0.010921   0.010659  10.573278  10.348756     0.16 (  65->  75)    0.07 (  64->  75)    0.04 (  65->  76)
 116   8.745     141.8   0.002385   0.001960  -2.672070  -2.265869     0.19 (  65->  75)    0.07 (  59->  80)    0.06 (  60->  80)
 117   8.755     141.6   0.010657   0.008677  -29.612831  -25.808196     0.13 (  72->  97)    0.06 (  50->  75)    0.05 (  64->  74)
 118   8.778     141.2   0.009332   0.008733  -16.433768  -15.756721     0.09 (  67->  89)    0.07 (  72->  97)    0.05 (  72->  95)
 119   8.783     141.2   0.004696   0.004137   1.401001   2.418118     0.28 (  67->  89)    0.15 (  67->  92)    0.08 (  67->  90)
 120   8.795     141.0   0.034151   0.031026  -2.997515  -3.248213     0.07 (  55->  77)    0.06 (  73-> 103)    0.04 (  66->  82)
 121   8.799     140.9   0.015120   0.014574  -10.696550  -11.384197     0.19 (  55->  77)    0.11 (  70->  79)    0.06 (  64->  74)
 122   8.802     140.9   0.002756   0.002448  -21.386201  -20.689692     0.29 (  55->  77)    0.08 (  55->  76)    0.06 (  70->  79)
 123   8.815     140.7   0.080927   0.074341  24.393615  20.821052     0.04 (  67->  86)    0.04 (  71->  91)    0.04 (  70->  85)
 124   8.852     140.1   0.024384   0.023378  11.481655  12.964779     0.08 (  70->  79)    0.06 (  72->  97)    0.04 (  73-> 105)
 125   8.889     139.5   0.003368   0.003328  10.152077  10.069424     0.14 (  71->  99)    0.13 (  71->  96)    0.08 (  71->  89)
 126   8.907     139.2   0.003440   0.002995   2.417823   1.980614     0.06 (  64->  74)    0.06 (  62->  78)    0.05 (  56->  78)
 127   8.915     139.1   0.001321   0.001257  -6.922923  -6.725218     0.12 (  56->  78)    0.10 (  62->  78)    0.05 (  54->  78)
 128   8.941     138.7   0.018063   0.016896  -3.136126  -3.255255     0.24 (  64->  74)    0.08 (  70->  79)    0.04 (  65->  74)
 129   8.960     138.4   0.066818   0.061785  -60.285238  -58.193616     0.09 (  68->  85)    0.06 (  69->  83)    0.03 (  70->  85)
 130   8.968     138.2   0.017901   0.016778  14.374102  15.056992     0.08 (  66->  82)    0.06 (  72->  95)    0.05 (  72-> 101)
 131   8.975     138.1   0.010931   0.010599   0.600176   0.960989     0.18 (  67->  89)    0.17 (  67->  92)    0.13 (  71->  89)
 132   9.006     137.7   0.020613   0.019466  27.461097  26.865998     0.07 (  68->  85)    0.06 (  63->  75)    0.04 (  70->  79)
 133   9.027     137.3   0.023642   0.023682   6.636104   6.331773     0.13 (  63->  75)    0.05 (  68->  86)    0.04 (  69->  86)
 134   9.047     137.1   0.088023   0.079019  -16.757841  -14.611195     0.10 (  63->  75)    0.03 (  73-> 100)    0.03 (  70-> 100)
 135   9.062     136.8   0.001927   0.001942   8.768890   9.180119     0.22 (  71->  89)    0.15 (  67->  89)    0.07 (  63->  89)
 136   9.090     136.4   0.013954   0.014012   5.944958   5.912458     0.06 (  57->  78)    0.05 (  56->  78)    0.04 (  58->  79)
 137   9.096     136.3   0.025460   0.022924  -21.563897  -20.696344     0.07 (  72-> 100)    0.04 (  72-> 105)    0.04 (  73-> 100)
 138   9.113     136.0   0.142442   0.129389  -35.083516  -32.801665     0.14 (  58->  79)    0.08 (  57->  79)    0.03 (  72-> 101)
 139   9.122     135.9   0.031626   0.027325  29.914189  28.241688     0.07 (  73-> 103)    0.05 (  58->  79)    0.05 (  72-> 101)
 140   9.138     135.7   0.002804   0.002226   6.358442   5.252086     0.26 (  42->  74)    0.10 (  51->  79)    0.07 (  49->  74)
 141   9.147     135.5   0.003059   0.002745   5.692299   5.809483     0.06 (  71->  80)    0.05 (  68->  80)    0.03 (  68->  81)
 142   9.166     135.3   0.008032   0.006796   5.391632   4.893694     0.29 (  51->  77)    0.16 (  51->  76)    0.06 (  42->  74)
 143   9.172     135.2   0.004494   0.003399   6.987724   5.789824     0.03 (  68->  91)    0.03 (  47->  74)    0.03 (  73-> 103)
 144   9.187     135.0   0.003938   0.003637  12.506892  11.630772     0.11 (  72-> 102)    0.10 (  72-> 105)    0.08 (  72-> 101)
 145   9.206     134.7   0.001137   0.000840  -1.566487  -0.931776     0.08 (  69->  78)    0.05 (  68->  78)    0.04 (  59->  80)
 146   9.212     134.6   0.043216   0.038050  -77.345997  -72.454631     0.07 (  51->  77)    0.05 (  47->  74)    0.05 (  40->  74)
 147   9.227     134.4   0.008791   0.007512   1.428143   1.938816     0.04 (  66->  82)    0.03 (  42->  74)    0.03 (  71->  80)
 148   9.232     134.3   0.004153   0.003667  -13.795373  -12.010998     0.06 (  56->  80)    0.05 (  51->  77)    0.03 (  71->  95)
 149   9.260     133.9   0.010186   0.008451  15.061922  14.170392     0.26 (  56->  80)    0.06 (  54->  78)    0.04 (  54->  80)
 150   9.267     133.8   0.058258   0.052086  -65.223841  -59.730043     0.06 (  40->  74)    0.04 (  69->  78)    0.04 (  69->  91)
 151   9.279     133.6   0.025264   0.022986  26.530004  23.270143     0.05 (  69->  78)    0.04 (  56->  80)    0.03 (  71->  80)
 152   9.293     133.4   0.013949   0.012047  -11.889163  -11.027665     0.20 (  69->  78)    0.06 (  68->  78)    0.04 (  54->  78)
 153   9.307     133.2   0.016864   0.013055   5.292640   5.468673     0.14 (  40->  74)    0.07 (  41->  74)    0.05 (  69->  78)
 154   9.315     133.1   0.001502   0.001517   0.389660   0.427545     0.05 (  72-> 105)    0.04 (  72-> 103)    0.03 (  63->  75)
 155   9.333     132.8   0.003434   0.002717  17.331528  15.259390     0.11 (  67->  92)    0.07 (  67->  90)    0.07 (  67->  83)
 156   9.354     132.6   0.006489   0.005495  -7.844653  -7.920259     0.06 (  71->  91)    0.04 (  65->  83)    0.03 (  69->  87)
 157   9.380     132.2   0.022230   0.019990  12.593260  12.620507     0.04 (  64->  81)    0.04 (  71-> 100)    0.04 (  73-> 103)
 158   9.389     132.1   0.003398   0.002535  16.402449  14.743852     0.21 (  53->  78)    0.09 (  59->  81)    0.05 (  60->  81)
 159   9.414     131.7   0.011716   0.010211   1.685457   1.463400     0.06 (  50->  78)    0.06 (  64->  80)    0.05 (  58->  78)
 160   9.427     131.5   0.007673   0.007380  16.738321  16.260423     0.07 (  61->  75)    0.06 (  47->  74)    0.06 (  52->  77)
 161   9.437     131.4   0.001836   0.001895   2.244135   2.088751     0.14 (  52->  77)    0.05 (  52->  76)    0.04 (  47->  74)
 162   9.441     131.3   0.005120   0.004368   5.645728   5.166166     0.04 (  64->  81)    0.04 (  70->  86)    0.03 (  70->  87)
 163   9.459     131.1   0.007006   0.006124  -13.009983  -13.847222     0.15 (  52->  77)    0.07 (  71->  99)    0.05 (  52->  76)
 164   9.469     130.9   0.001564   0.001687   1.491977   1.155554     0.10 (  72-> 103)    0.08 (  66->  84)    0.05 (  64->  81)
 165   9.528     130.1   0.015561   0.014396  -2.055768  -2.071896     0.08 (  72-> 103)    0.07 (  72->  83)    0.06 (  70->  87)
 166   9.544     129.9   0.002806   0.002546  -7.091840  -6.346445     0.06 (  48->  76)    0.06 (  49->  74)    0.04 (  47->  75)
 167   9.553     129.8   0.027926   0.025964  -9.104439  -8.710020     0.07 (  71->  80)    0.07 (  71-> 101)    0.03 (  71-> 102)
 168   9.557     129.7   0.002909   0.002604  10.436649  10.066491     0.06 (  72-> 105)    0.04 (  72->  95)    0.04 (  73-> 109)
 169   9.569     129.6   0.001104   0.001030  -0.886936  -0.807647     0.85 (  67->  78)    0.03 (  67->  79)    0.02 (  67->  76)
 170   9.581     129.4   0.042703   0.042450  12.479523  12.360467     0.07 (  71->  80)    0.07 (  71->  81)    0.04 (  71->  99)
 171   9.620     128.9   0.001320   0.000885   1.715988   0.562216     0.09 (  49->  74)    0.05 (  56->  76)    0.03 (  73-> 104)
 172   9.629     128.8   0.012340   0.011116  -5.253167  -5.968140     0.06 (  56->  76)    0.05 (  46->  75)    0.03 (  64->  80)
 173   9.657     128.4   0.003682   0.003661   6.664169   6.233324     0.05 (  65->  92)    0.04 (  69-> 102)    0.03 (  65->  83)
 174   9.673     128.2   0.000860   0.000661  -0.123432   0.393004     0.08 (  49->  74)    0.07 (  49->  79)    0.06 (  49->  76)
 175   9.675     128.2   0.021924   0.020231  21.446951  21.406614     0.07 (  72-> 104)    0.04 (  64->  81)    0.03 (  57->  80)
 176   9.693     127.9   0.000413   0.000575  -0.171558  -2.216606     0.08 (  70->  88)    0.04 (  66->  87)    0.04 (  64->  80)
 177   9.706     127.7   0.023574   0.020392  -86.475709  -79.587440     0.05 (  70->  88)    0.05 (  66->  77)    0.02 (  68-> 102)
 178   9.715     127.6   0.011787   0.009403   2.711314   2.761261     0.24 (  66->  77)    0.06 (  66->  76)    0.05 (  64->  80)
 179   9.742     127.3   0.033973   0.030903  -34.630291  -33.714334     0.21 (  66->  77)    0.05 (  62->  78)    0.04 (  62->  83)
 180   9.759     127.0   0.004886   0.005055  -3.377259  -2.499307     0.11 (  71->  81)    0.06 (  68->  84)    0.04 (  68->  80)
 181   9.769     126.9   0.000490   0.000450  -0.969864  -1.006729     0.27 (  51->  79)    0.13 (  42->  74)    0.10 (  35->  74)
 182   9.772     126.9   0.006000   0.006614  17.612462  16.464394     0.10 (  71->  80)    0.03 (  67->  98)    0.03 (  67->  91)
 183   9.783     126.7   0.022040   0.020994  -20.968297  -18.187648     0.11 (  73-> 105)    0.07 (  70->  94)    0.06 (  66->  77)
 184   9.788     126.7   0.011726   0.009781  33.341722  30.747920     0.09 (  66->  77)    0.07 (  73->  85)    0.03 (  71->  81)
 185   9.798     126.5   0.037152   0.035540   1.539779   0.300082     0.06 (  71->  81)    0.06 (  71->  80)    0.05 (  73->  85)
 186   9.816     126.3   0.008302   0.008037  22.771159  22.896426     0.09 (  46->  75)    0.06 (  44->  75)    0.04 (  59->  76)
 187   9.833     126.1   0.016426   0.014152  36.928368  33.539403     0.08 (  67->  98)    0.05 (  67->  91)    0.04 (  52->  79)
 188   9.839     126.0   0.021186   0.018464   1.631607   0.877678     0.10 (  67->  91)    0.06 (  67->  98)    0.06 (  66->  84)
 189   9.850     125.9   0.040223   0.034337  25.956206  24.032869     0.08 (  66->  84)    0.07 (  67->  91)    0.04 (  64->  81)
 190   9.863     125.7   0.007362   0.006190  -15.023427  -13.009143     0.08 (  66->  79)    0.07 (  71->  98)    0.05 (  67->  97)
 191   9.865     125.7   0.012479   0.010516  30.105301  27.771836     0.08 (  67->  98)    0.05 (  71->  99)    0.04 (  67->  97)
 192   9.896     125.3   0.043615   0.039895  -58.381257  -54.972107     0.04 (  66->  79)    0.04 (  63->  83)    0.03 (  70-> 104)
 193   9.909     125.1   0.064183   0.058693   5.731723   6.183055     0.04 (  73-> 104)    0.03 (  50->  78)    0.03 (  73->  85)
 194   9.926     124.9   0.012395   0.010531  -9.569665  -8.228713     0.09 (  59->  76)    0.06 (  59->  74)    0.03 (  72-> 104)
 195   9.935     124.8   0.058141   0.054486  59.644385  55.191901     0.07 (  58->  76)    0.05 (  58->  75)    0.03 (  58->  79)
 196   9.939     124.7   0.015267   0.014284  -0.252934  -0.494646     0.13 (  67->  99)    0.09 (  71->  98)    0.04 (  67->  96)
 197   9.944     124.7   0.002766   0.002628  -3.250773  -2.398750     0.05 (  58->  76)    0.04 (  58->  75)    0.03 (  61->  89)
 198   9.952     124.6   0.010727   0.009698  -6.027714  -5.698596     0.02 (  57->  76)    0.02 (  66->  84)    0.02 (  57->  80)
 199   9.960     124.5   0.001108   0.000939  -9.897097  -10.271212     0.04 (  59->  74)    0.03 (  44->  75)    0.02 (  63->  83)
 200   9.969     124.4   0.024088   0.023713  -16.203750  -15.428770     0.06 (  55->  79)    0.04 (  43->  74)    0.04 (  66->  79)
 201   9.984     124.2   0.004597   0.004260  -18.596436  -18.303043     0.09 (  65->  85)    0.07 (  55->  79)    0.06 (  45->  74)
 202   9.996     124.0   0.036329   0.036102  19.070299  19.302670     0.07 (  61->  89)    0.05 (  65->  89)    0.05 (  65->  86)

sTD-DFT done

Total run time:       25.684 sec

           *** ORCA-CIS/TD-DFT FINISHED WITHOUT ERROR ***


-------------------------------------------------------------------------------
                          DFT DISPERSION CORRECTION                            
                                                                               
                              DFTD3 V3.1  Rev 1                                
                              USING zero damping                               
-------------------------------------------------------------------------------
The omegaB97X-D3 functional is recognized. Fit by Chai et al.
Active option DFTDOPT                   ...         3   

molecular C6(AA) [au] = 33544.762384 


            DFT-D V3
 parameters
 s6 scaling factor         :     1.0000 
 rs6 scaling factor        :     1.2810 
 s8 scaling factor         :     1.0000 
 rs8 scaling factor        :     1.0940 
 Damping factor alpha6     :    14.0000 
 Damping factor alpha8     :    16.0000 
 ad hoc parameters k1-k3   :    16.0000     1.3333    -4.0000 

 Edisp/kcal,au: -13.001746808099  -0.020719600195 
 E6   /kcal   :  -6.128366058 
 E8   /kcal   :  -6.873380751 
 % E8         :  52.865056150 

-------------------------   ----------------
Dispersion correction           -0.020719600
-------------------------   ----------------


-------------------------   --------------------
FINAL SINGLE POINT ENERGY     -1424.012794094824
-------------------------   --------------------


                            ***************************************
                            *     ORCA property calculations      *
                            ***************************************

                                    ---------------------
                                    Active property flags
                                    ---------------------
   (+) Dipole Moment
   (+) Quadrupole Moment


------------------------------------------------------------------------------
                       ORCA ELECTRIC PROPERTIES CALCULATION
------------------------------------------------------------------------------

Dipole Moment Calculation                       ... on
Quadrupole Moment Calculation                   ... on
Polarizability Calculation                      ... off
GBWName                                         ... total_job2.gbw
Electron density file                           ... total_job2.scfp.tmp

-------------
DIPOLE MOMENT
-------------
                                X             Y             Z
Electronic contribution:      8.05040      -2.32276       5.61568
Nuclear contribution   :     -9.07177       3.75399      -7.40295
                        -----------------------------------------
Total Dipole Moment    :     -1.02137       1.43123      -1.78727
                        -----------------------------------------
Magnitude (a.u.)       :      2.50718
Magnitude (Debye)      :      6.37274


------------------------
QUADRUPOLE MOMENT (A.U.)
------------------------

                XX           YY           ZZ           XY           XZ           YZ
  NUC     21903.82413   1830.47091   1136.85300  -2763.25958    783.93369  -1063.12281
  EL     -22007.99541  -1963.49564  -1271.65798   2756.04453   -778.89532   1054.29064
  TOT      -104.17128   -133.02473   -134.80498     -7.21506      5.03838     -8.83218

--------------------------------------------------------------------------
[[26308,1],9]: A high-performance Open MPI point-to-point messaging module
was unable to find any relevant network interfaces:

Module: OpenFabrics (openib)
  Host: cx1-103-2-3

Another transport will be used instead, although this may result in
lower performance.
--------------------------------------------------------------------------

Timings for individual modules:

Sum of individual times         ...      144.342 sec (=   2.406 min)
GTO integral calculation        ...        4.858 sec (=   0.081 min)   3.4 %
SCF iterations                  ...      111.508 sec (=   1.858 min)  77.3 %
CIS module                      ...       27.976 sec (=   0.466 min)  19.4 %



                             ****ORCA TERMINATED NORMALLY****
TOTAL RUN TIME: 0 days 0 hours 8 minutes 58 seconds 402 msec
