   67
Geometry Step: 6153
    C      4.78829552      2.39571790      1.35920444      4.11712969
    C      5.14374682      1.26505827      0.62873112      4.07550216
    C      6.40739814      0.67934727      0.83791807      4.03013026
    C      7.27944137      1.28516651      1.78634169      3.86681077
    C      6.92306204      2.42295941      2.52679141      4.16715959
    C      5.66243236      2.96851177      2.29956102      4.06820813
    C      7.12836680     -0.45526482      0.27680984      4.03486784
    C      8.40851700     -0.45482548      0.90852650      3.87152860
    N      8.47089135      0.58338069      1.81940131      5.17621317
    C      9.41793368     -1.37840969      0.60225896      4.15404912
    C      9.14487608     -2.32420268     -0.38332591      4.07856716
    C      7.90097913     -2.34729676     -1.02566629      4.11672955
    C      6.86898448     -1.44401576     -0.71219327      4.01516408
    H      7.70940007     -3.10204099     -1.78351497      0.90762336
    H      9.27348691      0.81197172      2.39283966      0.78516440
    H      9.90182633     -3.05417291     -0.65616821      0.91833382
    H      4.44104317      0.84165861     -0.08170756      0.89417812
    H      7.60850395      2.86179204      3.24698821      0.91925326
    H      5.35047614      3.84940561      2.85461273      0.92340771
    H      3.81142634      2.84513750      1.20198862      0.92136777
    C     -0.29807913     -0.77593508     -0.93067818      3.59768807
    N      0.84013708     -1.23385207     -1.52287693      5.38845793
    C      2.00325287     -0.97248844     -0.88972476      3.65863703
    N      2.07865979     -0.28746117      0.28204526      5.37527517
    C      0.90557922      0.13135615      0.79783060      3.69241983
    N     -0.29867483     -0.08027551      0.23905001      5.37427516
    C      3.27477912     -1.43918429     -1.51037527      3.66147739
    N      4.42437695     -1.23120953     -0.82927581      5.37720846
    C      5.57924760     -1.62260646     -1.41886932      3.60095251
    N      5.60108543     -2.23107685     -2.63765452      5.38858030
    C      4.41326580     -2.41291063     -3.24013755      3.69236098
    N      3.22536068     -2.03289069     -2.72916687      5.36599443
    H      4.41079197     -2.90414973     -4.22515290      0.95695497
    H      0.93732195      0.68989213      1.74541317      0.95533537
    C     -7.97672891     -0.74299453     -1.36533577      4.08546335
    C     -9.31996912     -0.37398887     -1.32013338      4.07716857
    C     -9.68560219      0.88298017     -0.83521751      4.07732528
    C     -8.70009187      1.77369390     -0.40426991      4.07448138
    C     -7.35684382      1.40521599     -0.43989671      4.09328612
    C     -6.97868033      0.13456292     -0.90958829      3.98067632
    C     -5.54705471     -0.27314786     -0.98932751      3.84470550
    C     -4.58265384      0.07733046      0.05828548      3.84512699
    N     -3.27458811     -0.12221027     -0.09748937      5.27875662
    C     -2.87606034     -0.74559671     -1.25458523      3.86075646
    C     -3.83896449     -1.21093810     -2.22338391      3.86182389
    N     -5.18325048     -0.93908772     -2.08293051      5.29611515
    C     -1.55160103     -1.05788126     -1.60936225      4.08183497
    S     -1.53163637     -1.93094831     -3.12358170      5.89317064
    C     -3.25053762     -1.88165711     -3.29718356      4.15904693
    C     -5.00831345      0.63531748      1.37184299      3.98112156
    C     -4.20282795      1.59811823      2.00411412      4.08252480
    C     -4.56477201      2.12204620      3.24349401      4.07735863
    C     -5.72686428      1.68046016      3.87891497      4.07626166
    C     -6.51978114      0.70315219      3.27359217      4.07521646
    C     -6.16597159      0.18276750      2.03046037      4.09329684
    H     -6.77915254     -0.59218442      1.57733557      0.91737717
    H     -7.41529026      0.34280637      3.77331623      0.92050964
    H     -6.00862756      2.08840483      4.84620977      0.92146497
    H     -3.93833767      2.87361533      3.71746985      0.92077863
    H     -3.29570785      1.93415273      1.50858682      0.90842562
    H     -6.59543692      2.11129949     -0.11791633      0.91718411
    H     -8.97897498      2.75958465     -0.04134954      0.92021490
    H    -10.73310099      1.17098379     -0.80087668      0.92121852
    H    -10.08347335     -1.06626499     -1.66616103      0.92094503
    H     -7.68815481     -1.71961568     -1.74550243      0.91240015
    H     10.37859126     -1.34919049      1.10933055      0.91687746
    H     -3.75783288     -2.31817206     -4.14868558      0.88007952
