
                                 *****************
                                 * O   R   C   A *
                                 *****************

           --- An Ab Initio, DFT and Semiempirical electronic structure package ---

                  #######################################################
                  #                        -***-                        #
                  #  Department of molecular theory and spectroscopy    #
                  #              Directorship: Frank Neese              #
                  # Max Planck Institute for Chemical Energy Conversion #
                  #                  D-45470 Muelheim/Ruhr              #
                  #                       Germany                       #
                  #                                                     #
                  #                  All rights reserved                #
                  #                        -***-                        #
                  #######################################################


                         Program Version 4.0.0 -  RELEASE  -


 With contributions from (in alphabetic order):
   Daniel Aravena         : Magnetic Properties
   Michael Atanasov       : Ab Initio Ligand Field Theory
   Ute Becker             : Parallelization
   Martin Brehm           : Molecular dynamics
   Dmytro Bykov           : SCF Hessian
   Vijay G. Chilkuri      : MRCI spin determinant printing
   Dipayan Datta          : RHF DLPNO-CCSD density
   Achintya Kumar Dutta   : EOM-CC, STEOM-CC
   Dmitry Ganyushin       : Spin-Orbit,Spin-Spin,Magnetic field MRCI
   Yang Guo               : DLPNO-NEVPT2, CIM, IAO-localization
   Andreas Hansen         : Spin unrestricted coupled pair/coupled cluster methods
   Lee Huntington         : MR-EOM, pCC
   Robert Izsak           : Overlap fitted RIJCOSX, COSX-SCS-MP3, EOM
   Christian Kollmar      : KDIIS, OOCD, Brueckner-CCSD(T), CCSD density
   Simone Kossmann        : Meta GGA functionals, TD-DFT gradient, OOMP2, MP2 Hessian
   Martin Krupicka        : AUTO-CI
   Dagmar Lenk            : GEPOL surface
   Dimitrios Liakos       : Extrapolation schemes; parallel MDCI
   Dimitrios Manganas     : ROCIS; embedding schemes
   Dimitrios Pantazis     : SARC Basis sets
   Taras Petrenko         : DFT Hessian,TD-DFT gradient, ASA, ECA, R-Raman, ABS, FL, XAS/XES, NRVS
   Peter Pinski           : DLPNO-MP2
   Christoph Reimann      : Effective Core Potentials
   Marius Retegan         : Local ZFS, SOC
   Christoph Riplinger    : Optimizer, TS searches, QM/MM, DLPNO-CCSD(T), (RO)-DLPNO pert. Triples
   Tobias Risthaus        : Range-separated hybrids, TD-DFT gradient, RPA, STAB
   Michael Roemelt        : Restricted open shell CIS
   Masaaki Saitow         : Open-shell DLPNO
   Barbara Sandhoefer     : DKH picture change effects
   Kantharuban Sivalingam : CASSCF convergence, NEVPT2, FIC-MRCI
   Georgi Stoychev        : AutoAux
   Boris Wezisla          : Elementary symmetry handling
   Frank Wennmohs         : Technical directorship


 We gratefully acknowledge several colleagues who have allowed us to
 interface, adapt or use parts of their codes:
   Stefan Grimme, W. Hujo, H. Kruse,             : VdW corrections, initial TS optimization,
                  C. Bannwarth                     DFT functionals, gCP, sTDA/sTD-DF
   Ed Valeev                                     : LibInt (2-el integral package), F12 methods
   Garnet Chan, S. Sharma, J. Yang, R. Olivares  : DMRG
   Ulf Ekstrom                                   : XCFun DFT Library
   Mihaly Kallay                                 : mrcc  (arbitrary order and MRCC methods)
   Jiri Pittner, Ondrej Demel                    : Mk-CCSD
   Frank Weinhold                                : gennbo (NPA and NBO analysis)
   Christopher J. Cramer and Donald G. Truhlar   : smd solvation model


 Your calculation uses the libint2 library for the computation of 2-el integrals
 For citations please refer to: http://libint.valeyev.net

 This ORCA versions uses:
   CBLAS   interface :  Fast vector & matrix operations
   LAPACKE interface :  Fast linear algebra routines
   SCALAPACK package :  Parallel linear algebra routines


Your calculation utilizes the atom-pairwise dispersion correction
with the zero-damping scheme (D30)
Cite in your paper:
S.Grimme, J.Antony, S.Ehrlich and H.Krieg, J.Chem.Phys., 132, (2010), 154104 
   

XCFun DFT library Copyright 2009-2010 Ulf Ekstrom and contributors.
See http://admol.org/xcfun for more information. This is free soft-
ware; see the source code for copying conditions. There is ABSOLUTELY
NO WARRANTY; not even for MERCHANTABILITY or FITNESS FOR A PARTICULAR
PURPOSE. For details see the documentation. Scientific users of this 
library should cite U. Ekstrom, L. Visscher, R. Bast, A. J. Thorvald-
sen and K. Ruud; J.Chem.Theor.Comp. 2010, DOI: 10.1021/ct100117s
XCFun Version 0.99 
Your calculation utilizes the basis: def2-TZVP
   F. Weigend and R. Ahlrichs, Phys. Chem. Chem. Phys. 7, 3297 (2005).

Your calculation utilizes the auxiliary basis: def2/J
   F. Weigend, Phys. Chem. Chem. Phys. 8, 1057 (2006).

================================================================================
                                        WARNINGS
                       Please study these warnings very carefully!
================================================================================

Warning: TCutStore was < 0. Adjusted to Thresh (uncritical)
INFO   : Checking CIS options ...

WARNING: CIS/ROCIS methods need fully converged wavefunctions
  ===> : Setting SCFConvForced true
         You can overwrite this default with %scf ConvForced false 


INFO   : the flag for use of LIBINT has been found!

Your calculation utilizes the atom-pairwise dispersion correction
with the zero-damping scheme (D30)
Cite in your paper:
S.Grimme, J.Antony, S.Ehrlich and H.Krieg, J.Chem.Phys., 132, (2010), 154104 
   

XCFun DFT library Copyright 2009-2010 Ulf Ekstrom and contributors.
See http://admol.org/xcfun for more information. This is free soft-
ware; see the source code for copying conditions. There is ABSOLUTELY
NO WARRANTY; not even for MERCHANTABILITY or FITNESS FOR A PARTICULAR
PURPOSE. For details see the documentation. Scientific users of this 
library should cite U. Ekstrom, L. Visscher, R. Bast, A. J. Thorvald-
sen and K. Ruud; J.Chem.Theor.Comp. 2010, DOI: 10.1021/ct100117s
XCFun Version 0.99 
Your calculation utilizes the basis: def2-TZVP
   F. Weigend and R. Ahlrichs, Phys. Chem. Chem. Phys. 7, 3297 (2005).

Your calculation utilizes the auxiliary basis: def2/J
   F. Weigend, Phys. Chem. Chem. Phys. 8, 1057 (2006).

================================================================================
                                        WARNINGS
                       Please study these warnings very carefully!
================================================================================

INFO   : Checking CIS options ...

INFO   : the flag for use of LIBINT has been found!

================================================================================
                                       INPUT FILE
================================================================================
NAME = total.inp
|  1> # 
|  2> !wB97X-D3 def2-TZVP def2/J RIJCOSX Grid5 FinalGrid6 TightSCF
|  3> %pal 
|  4>  nprocs 24
|  5> end
|  6> %tddft
|  7>   Mode sTDDFT
|  8>   nroots 2
|  9>   Ethresh 10.0
| 10>   maxcore 5000
| 11>   triplets true
| 12> end
| 13> * xyz 0 1 
| 14> C -5.01087083 0.12504497 2.87173788
| 15> C -4.09398855 0.18080779 1.82524373
| 16> C -4.56191034 0.11125846 0.49895117
| 17> C -5.96093195 -0.03732993 0.28289841
| 18> C -6.88745047 -0.08791706 1.33560868
| 19> C -6.39073841 -0.00079306 2.63338286
| 20> C -3.93852465 0.10876142 -0.81582455
| 21> C -4.99832087 -0.06859254 -1.75397976
| 22> N -6.20109214 -0.13395815 -1.07653373
| 23> C -4.78719800 -0.17557017 -3.13673557
| 24> C -3.47167708 -0.11625673 -3.59073217
| 25> C -2.40945703 0.06470670 -2.69530423
| 26> C -2.60897586 0.19989691 -1.30855682
| 27> H -1.39723904 0.12965122 -3.08519152
| 28> H -7.10833314 -0.26874617 -1.50571794
| 29> H -3.26287966 -0.20290579 -4.65308980
| 30> H -3.03500746 0.27133707 2.04359164
| 31> H -7.95126790 -0.19770373 1.14310503
| 32> H -7.07771970 -0.03736973 3.47455055
| 33> H -4.65380755 0.17959540 3.89633745
| 34> C 4.16483317 0.38110368 0.97625529
| 35> N 3.74502482 1.06514861 2.05287320
| 36> O 2.40106741 1.21080454 1.92699490
| 37> C 1.97724414 0.63064654 0.79306232
| 38> C 3.05649210 0.07770831 0.13250101
| 39> C 0.55738911 0.67613963 0.47185838
| 40> N -0.33593642 1.28114133 1.26870058
| 41> O -1.54800707 1.13106179 0.67321649
| 42> C -1.42889180 0.44371581 -0.47232412
| 43> C -0.09618253 0.12818229 -0.66881102
| 44> H 0.34304290 -0.42722748 -1.48454203
| 45> H 3.05574361 -0.45869450 -0.80501395
| 46> N 7.56972910 -1.68685760 -1.67651442
| 47> C 7.43155437 -1.00564638 -0.52381998
| 48> C 6.04493157 -0.68826623 -0.36164028
| 49> N 5.38358052 -1.18722428 -1.42216806
| 50> O 6.32347589 -1.78079430 -2.19420318
| 51> C 5.57840294 0.04210883 0.78389327
| 52> C 6.54978032 0.41040251 1.70352689
| 53> C 7.92938679 0.09158493 1.53686350
| 54> C 8.39599362 -0.60726356 0.44655686
| 55> H 8.62649686 0.41754219 2.30469981
| 56> H 6.25023575 0.96498767 2.58878030
| 57> H -5.61773497 -0.30943714 -3.82398262
| 58> H 9.44963845 -0.84438407 0.33039552
| 59> *
| 60> $new_job
| 61> # 
| 62> !wB97X-D3 def2-TZVP def2/J RIJCOSX Grid5 FinalGrid6 TightSCF
| 63> %pal 
| 64>  nprocs 24
| 65> end
| 66> %elprop
| 67>    dipole     true
| 68>    quadrupole true
| 69> end
| 70> %tddft
| 71>   Mode sTDDFT
| 72>   nroots 2
| 73>   Ethresh 10.0
| 74>   maxcore 5000
| 75> end
| 76> * xyz 0 1 
| 77> C -5.01087083 0.12504497 2.87173788
| 78> C -4.09398855 0.18080779 1.82524373
| 79> C -4.56191034 0.11125846 0.49895117
| 80> C -5.96093195 -0.03732993 0.28289841
| 81> C -6.88745047 -0.08791706 1.33560868
| 82> C -6.39073841 -0.00079306 2.63338286
| 83> C -3.93852465 0.10876142 -0.81582455
| 84> C -4.99832087 -0.06859254 -1.75397976
| 85> N -6.20109214 -0.13395815 -1.07653373
| 86> C -4.78719800 -0.17557017 -3.13673557
| 87> C -3.47167708 -0.11625673 -3.59073217
| 88> C -2.40945703 0.06470670 -2.69530423
| 89> C -2.60897586 0.19989691 -1.30855682
| 90> H -1.39723904 0.12965122 -3.08519152
| 91> H -7.10833314 -0.26874617 -1.50571794
| 92> H -3.26287966 -0.20290579 -4.65308980
| 93> H -3.03500746 0.27133707 2.04359164
| 94> H -7.95126790 -0.19770373 1.14310503
| 95> H -7.07771970 -0.03736973 3.47455055
| 96> H -4.65380755 0.17959540 3.89633745
| 97> C 4.16483317 0.38110368 0.97625529
| 98> N 3.74502482 1.06514861 2.05287320
| 99> O 2.40106741 1.21080454 1.92699490
|100> C 1.97724414 0.63064654 0.79306232
|101> C 3.05649210 0.07770831 0.13250101
|102> C 0.55738911 0.67613963 0.47185838
|103> N -0.33593642 1.28114133 1.26870058
|104> O -1.54800707 1.13106179 0.67321649
|105> C -1.42889180 0.44371581 -0.47232412
|106> C -0.09618253 0.12818229 -0.66881102
|107> H 0.34304290 -0.42722748 -1.48454203
|108> H 3.05574361 -0.45869450 -0.80501395
|109> N 7.56972910 -1.68685760 -1.67651442
|110> C 7.43155437 -1.00564638 -0.52381998
|111> C 6.04493157 -0.68826623 -0.36164028
|112> N 5.38358052 -1.18722428 -1.42216806
|113> O 6.32347589 -1.78079430 -2.19420318
|114> C 5.57840294 0.04210883 0.78389327
|115> C 6.54978032 0.41040251 1.70352689
|116> C 7.92938679 0.09158493 1.53686350
|117> C 8.39599362 -0.60726356 0.44655686
|118> H 8.62649686 0.41754219 2.30469981
|119> H 6.25023575 0.96498767 2.58878030
|120> H -5.61773497 -0.30943714 -3.82398262
|121> H 9.44963845 -0.84438407 0.33039552
|122> *
|123> 
|124>                          ****END OF INPUT****
================================================================================


                 $$$$$$$$$$$$$$$$$$$$$$$$$$$$$$$$$$$$$$$$$$$$$$ 
                 $ THERE ARE  2 JOBS TO BE PROCESSED THIS RUN $
                 $$$$$$$$$$$$$$$$$$$$$$$$$$$$$$$$$$$$$$$$$$$$$$ 




                 $$$$$$$$$$$$$$$$  JOB NUMBER  1 $$$$$$$$$$$$$$


                       ****************************
                       * Single Point Calculation *
                       ****************************

---------------------------------
CARTESIAN COORDINATES (ANGSTROEM)
---------------------------------
  C     -5.010871    0.125045    2.871738
  C     -4.093989    0.180808    1.825244
  C     -4.561910    0.111258    0.498951
  C     -5.960932   -0.037330    0.282898
  C     -6.887450   -0.087917    1.335609
  C     -6.390738   -0.000793    2.633383
  C     -3.938525    0.108761   -0.815825
  C     -4.998321   -0.068593   -1.753980
  N     -6.201092   -0.133958   -1.076534
  C     -4.787198   -0.175570   -3.136736
  C     -3.471677   -0.116257   -3.590732
  C     -2.409457    0.064707   -2.695304
  C     -2.608976    0.199897   -1.308557
  H     -1.397239    0.129651   -3.085192
  H     -7.108333   -0.268746   -1.505718
  H     -3.262880   -0.202906   -4.653090
  H     -3.035007    0.271337    2.043592
  H     -7.951268   -0.197704    1.143105
  H     -7.077720   -0.037370    3.474551
  H     -4.653808    0.179595    3.896337
  C      4.164833    0.381104    0.976255
  N      3.745025    1.065149    2.052873
  O      2.401067    1.210805    1.926995
  C      1.977244    0.630647    0.793062
  C      3.056492    0.077708    0.132501
  C      0.557389    0.676140    0.471858
  N     -0.335936    1.281141    1.268701
  O     -1.548007    1.131062    0.673216
  C     -1.428892    0.443716   -0.472324
  C     -0.096183    0.128182   -0.668811
  H      0.343043   -0.427227   -1.484542
  H      3.055744   -0.458695   -0.805014
  N      7.569729   -1.686858   -1.676514
  C      7.431554   -1.005646   -0.523820
  C      6.044932   -0.688266   -0.361640
  N      5.383581   -1.187224   -1.422168
  O      6.323476   -1.780794   -2.194203
  C      5.578403    0.042109    0.783893
  C      6.549780    0.410403    1.703527
  C      7.929387    0.091585    1.536863
  C      8.395994   -0.607264    0.446557
  H      8.626497    0.417542    2.304700
  H      6.250236    0.964988    2.588780
  H     -5.617735   -0.309437   -3.823983
  H      9.449638   -0.844384    0.330396

----------------------------
CARTESIAN COORDINATES (A.U.)
----------------------------
  NO LB      ZA    FRAG     MASS         X           Y           Z
   0 C     6.0000    0    12.011   -9.469174    0.236301    5.426798
   1 C     6.0000    0    12.011   -7.736517    0.341677    3.449211
   2 C     6.0000    0    12.011   -8.620761    0.210248    0.942881
   3 C     6.0000    0    12.011  -11.264529   -0.070543    0.534601
   4 C     6.0000    0    12.011  -13.015395   -0.166139    2.523935
   5 C     6.0000    0    12.011  -12.076745   -0.001499    4.976372
   6 C     6.0000    0    12.011   -7.442733    0.205529   -1.541685
   7 C     6.0000    0    12.011   -9.445458   -0.129621   -3.314541
   8 N     7.0000    0    14.007  -11.718366   -0.253144   -2.034354
   9 C     6.0000    0    12.011   -9.046493   -0.331780   -5.927571
  10 C     6.0000    0    12.011   -6.560519   -0.219693   -6.785500
  11 C     6.0000    0    12.011   -4.553214    0.122278   -5.093387
  12 C     6.0000    0    12.011   -4.930250    0.377750   -2.472814
  13 H     1.0000    0     1.008   -2.640399    0.245005   -5.830167
  14 H     1.0000    0     1.008  -13.432803   -0.507857   -2.845395
  15 H     1.0000    0     1.008   -6.165949   -0.383436   -8.793065
  16 H     1.0000    0     1.008   -5.735333    0.512753    3.861829
  17 H     1.0000    0     1.008  -15.025719   -0.373606    2.160155
  18 H     1.0000    0     1.008  -13.374952   -0.070619    6.565949
  19 H     1.0000    0     1.008   -8.794422    0.339386    7.363011
  20 C     6.0000    0    12.011    7.870394    0.720182    1.844855
  21 N     7.0000    0    14.007    7.077071    2.012839    3.879368
  22 O     8.0000    0    15.999    4.537360    2.288089    3.641493
  23 C     6.0000    0    12.011    3.736450    1.191749    1.498671
  24 C     6.0000    0    12.011    5.775933    0.146847    0.250391
  25 C     6.0000    0    12.011    1.053313    1.277719    0.891683
  26 N     7.0000    0    14.007   -0.634828    2.421006    2.397497
  27 O     8.0000    0    15.999   -2.925309    2.137397    1.272195
  28 C     6.0000    0    12.011   -2.700214    0.838501   -0.892563
  29 C     6.0000    0    12.011   -0.181759    0.242229   -1.263870
  30 H     1.0000    0     1.008    0.648257   -0.807343   -2.805378
  31 H     1.0000    0     1.008    5.774519   -0.866807   -1.521256
  32 N     7.0000    0    14.007   14.304715   -3.187699   -3.168153
  33 C     6.0000    0    12.011   14.043603   -1.900396   -0.989876
  34 C     6.0000    0    12.011   11.423265   -1.300635   -0.683401
  35 N     7.0000    0    14.007   10.173493   -2.243529   -2.687508
  36 O     8.0000    0    15.999   11.949638   -3.365214   -4.146443
  37 C     6.0000    0    12.011   10.541654    0.079574    1.481344
  38 C     6.0000    0    12.011   12.377291    0.775548    3.219199
  39 C     6.0000    0    12.011   14.984369    0.173070    2.904251
  40 C     6.0000    0    12.011   15.866129   -1.147562    0.843870
  41 H     1.0000    0     1.008   16.301717    0.789040    4.355251
  42 H     1.0000    0     1.008   11.811234    1.823562    4.892086
  43 H     1.0000    0     1.008  -10.615981   -0.584751   -7.226280
  44 H     1.0000    0     1.008   17.857229   -1.595655    0.624357

--------------------------------
INTERNAL COORDINATES (ANGSTROEM)
--------------------------------
 C      0   0   0     0.000000000000     0.00000000     0.00000000
 C      1   0   0     1.392455605560     0.00000000     0.00000000
 C      2   1   0     1.408133468664   119.14888303     0.00000000
 C      3   2   1     1.423382861353   118.34204967   358.93113609
 C      4   3   2     1.403279921537   122.60517205     1.39260525
 C      5   4   3     1.392311489646   117.47997419   359.33315859
 C      3   2   1     1.455077711879   135.13593399   181.50611931
 C      7   3   2     1.426449316697   106.03254886   176.51151458
 N      8   7   3     1.381978478295   109.27491589     1.57764543
 C      8   7   3     1.402865178713   123.08810127   182.53792379
 C     10   8   7     1.392920057984   117.39640090     0.64795056
 C     11  10   8     1.401017627781   120.87969187   359.01396018
 C     12  11  10     1.407534204041   122.31827808   359.75063207
 H     12  11  10     1.086653187020   118.98928017   181.40926992
 H      9   8   7     1.012646596069   125.32902895   180.83509933
 H     11  10   8     1.086143708823   119.79856514   179.51756557
 H      2   1   3     1.085040233962   119.65353893   180.32657260
 H      5   4   3     1.086654633517   121.13941809   179.73488880
 H      6   5   4     1.086666567213   119.59580862   180.06164886
 H      1   2   3     1.086404259096   119.36462963   180.07243969
 C     14  12  11     6.891678010423   122.85530680   186.31208903
 N     21  14  12     1.342856150569   103.81345978   326.21062362
 O     22  21  14     1.357675409017   106.84481175     8.65430817
 C     23  22  21     1.342390615709   110.15036072     0.00000000
 C     24  23  22     1.380890324982   109.29150211     0.00000000
 C     24  23  22     1.456444265506   118.72355195   179.97316092
 N     26  24  23     1.341273667546   122.16529811     0.21765711
 O     27  26  24     1.358764302726   106.49533173   180.13333565
 C     28  27  26     1.341229373720   110.59094178     0.18850944
 C     29  28  27     1.383575983623   108.88757428   359.40794902
 H     30  29  28     1.080192608587   128.03732467   179.27460218
 H     25  24  23     1.080121676033   127.84410433   179.99669514
 N     32  25  24     4.758567292089   106.64730321   179.97679567
 C     33  32  25     1.346048087652    67.36686552     0.03106987
 C     34  33  32     1.431696617369   107.97580859     0.00000000
 N     35  34  33     1.345757600442   107.72820328     0.00000000
 O     33  32  25     1.352764879524    38.19571817   180.05561883
 C     35  34  33     1.436434406806   121.17217823   180.00202887
 C     38  35  34     1.387422157866   115.86063784     0.00000000
 C     39  38  35     1.425740280328   122.72683147     0.00000000
 C     40  39  38     1.376546299623   122.28392726     0.00000000
 H     40  39  38     1.087098516233   118.09227494   180.00028505
 H     39  38  35     1.086722250175   118.84457509   179.99789596
 H     10   8   7     1.086287499665   121.19301980   180.04726881
 H     41  40  39     1.086226045056   121.62320608   179.99942797

---------------------------
INTERNAL COORDINATES (A.U.)
---------------------------
 C      0   0   0     0.000000000000     0.00000000     0.00000000
 C      1   0   0     2.631359748153     0.00000000     0.00000000
 C      2   1   0     2.660986615783   119.14888303     0.00000000
 C      3   2   1     2.689803791674   118.34204967   358.93113609
 C      4   3   2     2.651814740935   122.60517205     1.39260525
 C      5   4   3     2.631087408543   117.47997419   359.33315859
 C      3   2   1     2.749698379024   135.13593399   181.50611931
 C      7   3   2     2.695598552476   106.03254886   176.51151458
 N      8   7   3     2.611560846951   109.27491589     1.57764543
 C      8   7   3     2.651030990583   123.08810127   182.53792379
 C     10   8   7     2.632237436035   117.39640090     0.64795056
 C     11  10   8     2.647539625301   120.87969187   359.01396018
 C     12  11  10     2.659854169765   122.31827808   359.75063207
 H     12  11  10     2.053476926021   118.98928017   181.40926992
 H      9   8   7     1.913624737018   125.32902895   180.83509933
 H     11  10   8     2.052514151758   119.79856514   179.51756557
 H      2   1   3     2.050428886474   119.65353893   180.32657260
 H      5   4   3     2.053479659504   121.13941809   179.73488880
 H      6   5   4     2.053502210921   119.59580862   180.06164886
 H      1   2   3     2.053006520417   119.36462963   180.07243969
 C     14  12  11    13.023384042868   122.85530680   186.31208903
 N     21  14  12     2.537630361827   103.81345978   326.21062362
 O     22  21  14     2.565634701801   106.84481175     8.65430817
 C     23  22  21     2.536750628435   110.15036072     0.00000000
 C     24  23  22     2.609504535197   109.29150211     0.00000000
 C     24  23  22     2.752280791127   118.72355195   179.97316092
 N     26  24  23     2.534639902303   122.16529811     0.21765711
 O     27  26  24     2.567692412700   106.49533173   180.13333565
 C     28  27  26     2.534556199101   110.59094178     0.18850944
 C     29  28  27     2.614579694519   108.88757428   359.40794902
 H     30  29  28     2.041268202115   128.03732467   179.27460218
 H     25  24  23     2.041134159015   127.84410433   179.99669514
 N     32  25  24     8.992388971884   106.64730321   179.97679567
 C     33  32  25     2.543662248751    67.36686552     0.03106987
 C     34  33  32     2.705514513689   107.97580859     0.00000000
 N     35  34  33     2.543113307479   107.72820328     0.00000000
 O     33  32  25     2.556355145887    38.19571817   180.05561883
 C     35  34  33     2.714467638204   121.17217823   180.00202887
 C     38  35  34     2.621847910501   115.86063784     0.00000000
 C     39  38  35     2.694258667920   122.72683147     0.00000000
 C     40  39  38     2.601295516950   122.28392726     0.00000000
 H     40  39  38     2.054318476273   118.09227494   180.00028505
 H     39  38  35     2.053607436469   118.84457509   179.99789596
 H     10   8   7     2.052785877068   121.19301980   180.04726881
 H     41  40  39     2.052669744689   121.62320608   179.99942797

---------------------
BASIS SET INFORMATION
---------------------
There are 4 groups of distinct atoms

 Group   1 Type C   : 11s6p2d1f contracted to 5s3p2d1f pattern {62111/411/11/1}
 Group   2 Type N   : 11s6p2d1f contracted to 5s3p2d1f pattern {62111/411/11/1}
 Group   3 Type H   : 5s1p contracted to 3s1p pattern {311/1}
 Group   4 Type O   : 11s6p2d1f contracted to 5s3p2d1f pattern {62111/411/11/1}

Atom   0C    basis set group =>   1
Atom   1C    basis set group =>   1
Atom   2C    basis set group =>   1
Atom   3C    basis set group =>   1
Atom   4C    basis set group =>   1
Atom   5C    basis set group =>   1
Atom   6C    basis set group =>   1
Atom   7C    basis set group =>   1
Atom   8N    basis set group =>   2
Atom   9C    basis set group =>   1
Atom  10C    basis set group =>   1
Atom  11C    basis set group =>   1
Atom  12C    basis set group =>   1
Atom  13H    basis set group =>   3
Atom  14H    basis set group =>   3
Atom  15H    basis set group =>   3
Atom  16H    basis set group =>   3
Atom  17H    basis set group =>   3
Atom  18H    basis set group =>   3
Atom  19H    basis set group =>   3
Atom  20C    basis set group =>   1
Atom  21N    basis set group =>   2
Atom  22O    basis set group =>   4
Atom  23C    basis set group =>   1
Atom  24C    basis set group =>   1
Atom  25C    basis set group =>   1
Atom  26N    basis set group =>   2
Atom  27O    basis set group =>   4
Atom  28C    basis set group =>   1
Atom  29C    basis set group =>   1
Atom  30H    basis set group =>   3
Atom  31H    basis set group =>   3
Atom  32N    basis set group =>   2
Atom  33C    basis set group =>   1
Atom  34C    basis set group =>   1
Atom  35N    basis set group =>   2
Atom  36O    basis set group =>   4
Atom  37C    basis set group =>   1
Atom  38C    basis set group =>   1
Atom  39C    basis set group =>   1
Atom  40C    basis set group =>   1
Atom  41H    basis set group =>   3
Atom  42H    basis set group =>   3
Atom  43H    basis set group =>   3
Atom  44H    basis set group =>   3
-------------------------------
AUXILIARY BASIS SET INFORMATION
-------------------------------
There are 4 groups of distinct atoms

 Group   1 Type C   : 12s5p4d2f1g contracted to 6s4p3d1f1g pattern {711111/2111/211/2/1}
 Group   2 Type N   : 12s5p4d2f1g contracted to 6s4p3d1f1g pattern {711111/2111/211/2/1}
 Group   3 Type H   : 5s2p1d contracted to 3s1p1d pattern {311/2/1}
 Group   4 Type O   : 12s5p4d2f1g contracted to 6s4p3d1f1g pattern {711111/2111/211/2/1}

Atom   0C    basis set group =>   1
Atom   1C    basis set group =>   1
Atom   2C    basis set group =>   1
Atom   3C    basis set group =>   1
Atom   4C    basis set group =>   1
Atom   5C    basis set group =>   1
Atom   6C    basis set group =>   1
Atom   7C    basis set group =>   1
Atom   8N    basis set group =>   2
Atom   9C    basis set group =>   1
Atom  10C    basis set group =>   1
Atom  11C    basis set group =>   1
Atom  12C    basis set group =>   1
Atom  13H    basis set group =>   3
Atom  14H    basis set group =>   3
Atom  15H    basis set group =>   3
Atom  16H    basis set group =>   3
Atom  17H    basis set group =>   3
Atom  18H    basis set group =>   3
Atom  19H    basis set group =>   3
Atom  20C    basis set group =>   1
Atom  21N    basis set group =>   2
Atom  22O    basis set group =>   4
Atom  23C    basis set group =>   1
Atom  24C    basis set group =>   1
Atom  25C    basis set group =>   1
Atom  26N    basis set group =>   2
Atom  27O    basis set group =>   4
Atom  28C    basis set group =>   1
Atom  29C    basis set group =>   1
Atom  30H    basis set group =>   3
Atom  31H    basis set group =>   3
Atom  32N    basis set group =>   2
Atom  33C    basis set group =>   1
Atom  34C    basis set group =>   1
Atom  35N    basis set group =>   2
Atom  36O    basis set group =>   4
Atom  37C    basis set group =>   1
Atom  38C    basis set group =>   1
Atom  39C    basis set group =>   1
Atom  40C    basis set group =>   1
Atom  41H    basis set group =>   3
Atom  42H    basis set group =>   3
Atom  43H    basis set group =>   3
Atom  44H    basis set group =>   3
-------------------------
ECP PARAMETER INFORMATION
-------------------------



--------------------------------------------------------------------------
[[24487,1],0]: A high-performance Open MPI point-to-point messaging module
was unable to find any relevant network interfaces:

Module: OpenFabrics (openib)
  Host: cx1-103-2-3

Another transport will be used instead, although this may result in
lower performance.
--------------------------------------------------------------------------


           ************************************************************
           *        Program running with 24 parallel MPI-processes    *
           *              working on a common directory               *
           ************************************************************
------------------------------------------------------------------------------
                           ORCA GTO INTEGRAL CALCULATION
                           -- RI-GTO INTEGRALS CHOSEN --
------------------------------------------------------------------------------

                         BASIS SET STATISTICS AND STARTUP INFO

Gaussian basis set:
 # of primitive gaussian shells          ...  718
 # of primitive gaussian functions       ... 1576
 # of contracted shells                  ...  404
 # of contracted basis functions         ... 1070
 Highest angular momentum                ...    3
 Maximum contraction depth               ...    6
Auxiliary gaussian basis set:
 # of primitive gaussian shells          ...  872
 # of primitive gaussian functions       ... 2448
 # of contracted shells                  ...  545
 # of contracted aux-basis functions     ... 1711
 Highest angular momentum                ...    4
 Maximum contraction depth               ...    7
Ratio of auxiliary to basis functions    ...  1.60
Integral package used                  ... LIBINT
 One Electron integrals                  
   ECP integrals                         ... done
 Ordering auxiliary basis shells         ... done
 Integral threshhold             Thresh  ...  2.500e-11
 Primitive cut-off               TCut    ...  2.500e-12
 Pre-screening matrix                    ... done
 Shell pair data                         ... 
 Ordering of the shell pairs             ... done (   0.010 sec) 42858 of 81810 pairs
 Determination of significant pairs      ... done (   0.000 sec)
 Creation of shell pair data             ... done (   0.007 sec)
 Storage of shell pair data              ... done (   0.107 sec)
 Shell pair data done in (   0.124 sec)
 Computing two index integrals           ... done
 Cholesky decomposition of the V-matrix  ... done


Timings:
 Total evaluation time                   ...   4.227 sec (  0.070 min)
 One electron matrix time                ...   1.201 sec (  0.020 min) = 28.4%
 Schwartz matrix evaluation time         ...   1.622 sec (  0.027 min) = 38.4%
 Two index repulsion integral time       ...   0.753 sec (  0.013 min) = 17.8%
 Cholesky decomposition of V             ...   0.489 sec (  0.008 min) = 11.6%
 Three index repulsion integral time     ...   0.000 sec (  0.000 min) =  0.0%

--------------------------------------------------------------------------
[[24521,1],2]: A high-performance Open MPI point-to-point messaging module
was unable to find any relevant network interfaces:

Module: OpenFabrics (openib)
  Host: cx1-103-2-3

Another transport will be used instead, although this may result in
lower performance.
--------------------------------------------------------------------------


           ************************************************************
           *        Program running with 24 parallel MPI-processes    *
           *              working on a common directory               *
           ************************************************************
-------------------------------------------------------------------------------
                                 ORCA SCF
-------------------------------------------------------------------------------

------------
SCF SETTINGS
------------
Hamiltonian:
 Density Functional     Method          .... DFT(GTOs)
 Exchange Functional    Exchange        .... WB97X-D3
 Correlation Functional Correlation     .... WB97X-D3
 Gradients option       PostSCFGGA      .... off
 Hybrid DFT is turned on
   Fraction HF Exchange ScalHFX         ....  0.195728
   Scaling of DF-GGA-X  ScalDFX         ....  0.000000
   Scaling of DF-GGA-C  ScalDFC         ....  1.000000
   Scaling of DF-LDA-C  ScalLDAC        ....  1.000000
   Perturbative correction              ....  0.000000
 Long-range corrected/Screened/Range-Separated Hybrid DFT is turned on
   Amount of maximum screened exact exchange              ....  0.804272
   Range separation parameter mu (erf(mu*r12)/r12)        ....  0.250000
 RI-approximation to the Coulomb term is turned on
   Number of auxiliary basis functions  .... 1711
   RIJ-COSX (HFX calculated with COS-X)).... on


General Settings:
 Integral files         IntName         .... total
 Hartree-Fock type      HFTyp           .... RHF
 Total Charge           Charge          ....    0
 Multiplicity           Mult            ....    1
 Number of Electrons    NEL             ....  216
 Basis Dimension        Dim             .... 1070
 Nuclear Repulsion      ENuc            ....   2722.9334018263 Eh

Convergence Acceleration:
 DIIS                   CNVDIIS         .... on
   Start iteration      DIISMaxIt       ....    12
   Startup error        DIISStart       ....  0.200000
   # of expansion vecs  DIISMaxEq       ....     5
   Bias factor          DIISBfac        ....   1.050
   Max. coefficient     DIISMaxC        ....  10.000
 Newton-Raphson         CNVNR           .... off
 SOSCF                  CNVSOSCF        .... on
   Start iteration      SOSCFMaxIt      ....   150
   Startup grad/error   SOSCFStart      ....  0.003300
 Level Shifting         CNVShift        .... on
   Level shift para.    LevelShift      ....    0.2500
   Turn off err/grad.   ShiftErr        ....    0.0010
 Zerner damping         CNVZerner       .... off
 Static damping         CNVDamp         .... on
   Fraction old density DampFac         ....    0.7000
   Max. Damping (<1)    DampMax         ....    0.9800
   Min. Damping (>=0)   DampMin         ....    0.0000
   Turn off err/grad.   DampErr         ....    0.1000
 Fernandez-Rico         CNVRico         .... off

SCF Procedure:
 Maximum # iterations   MaxIter         ....   125
 SCF integral mode      SCFMode         .... Direct
   Integral package                     .... LIBINT
 Reset frequeny         DirectResetFreq ....    20
 Integral Threshold     Thresh          ....  2.500e-11 Eh
 Primitive CutOff       TCut            ....  2.500e-12 Eh

Convergence Tolerance:
 Convergence Check Mode ConvCheckMode   .... Total+1el-Energy
 Convergence forced     ConvForced      .... 1
 Energy Change          TolE            ....  1.000e-08 Eh
 1-El. energy change                    ....  1.000e-05 Eh
 Orbital Gradient       TolG            ....  1.000e-05
 Orbital Rotation angle TolX            ....  1.000e-05
 DIIS Error             TolErr          ....  5.000e-07


Diagonalization of the overlap matrix:
Smallest eigenvalue                        ... 5.916e-06
Time for diagonalization                   ...    0.345 sec
Threshold for overlap eigenvalues          ... 1.000e-08
Number of eigenvalues below threshold      ... 0
Time for construction of square roots      ...    0.393 sec
Total time needed                          ...    0.743 sec

-------------------
DFT GRID GENERATION
-------------------

General Integration Accuracy     IntAcc      ...  5.010
Radial Grid Type                 RadialGrid  ... Gauss-Chebyshev
Angular Grid (max. acc.)         AngularGrid ... Lebedev-434
Angular grid pruning method      GridPruning ... 3 (G Style)
Weight generation scheme         WeightScheme... Becke
Basis function cutoff            BFCut       ...    1.0000e-11
Integration weight cutoff        WCut        ...    1.0000e-14
Grids for H and He will be reduced by one unit

# of grid points (after initial pruning)     ... 429224 (   0.0 sec)
# of grid points (after weights+screening)   ... 377150 (   0.8 sec)
nearest neighbour list constructed           ...    0.0 sec
Grid point re-assignment to atoms done       ...    0.1 sec
Grid point division into batches done        ...    3.3 sec
Reduced shell lists constructed in    3.9 sec

Total number of grid points                  ...   377150
Total number of batches                      ...     5918
Average number of points per batch           ...       63
Average number of grid points per atom       ...     8381
Average number of shells per batch           ...   131.98 (32.67%)
Average number of basis functions per batch  ...   339.76 (31.75%)
Average number of large shells per batch     ...    90.46 (68.54%)
Average number of large basis fcns per batch ...   233.06 (68.60%)
Maximum spatial batch extension              ...   7.09, 14.44, 12.26 au
Average spatial batch extension              ...   0.05,  0.06,  0.05 au

Time for grid setup =    5.582 sec

------------------------------
INITIAL GUESS: MODEL POTENTIAL
------------------------------
Loading Hartree-Fock densities                     ... done
Calculating cut-offs                               ... done
Setting up the integral package                    ... done
Initializing the effective Hamiltonian             ... done
Starting the Coulomb interaction                   ... done (   0.2 sec)
Reading the grid                                   ... done
Mapping shells                                     ... done
Starting the XC term evaluation                    ... done (   1.6 sec)
  promolecular density results
     # of electrons  =    215.993639323
     EX              =   -183.753767816
     EC              =     -7.344460536
     EX+EC           =   -191.098228352
Transforming the Hamiltonian                       ... done (   0.2 sec)
Diagonalizing the Hamiltonian                      ... done (   0.3 sec)
Back transforming the eigenvectors                 ... done (   0.1 sec)
Now organizing SCF variables                       ... done
                      ------------------
                      INITIAL GUESS DONE (   8.3 sec)
                      ------------------
--------------------
COSX GRID GENERATION
--------------------

General Integration Accuracy     IntAcc      ...  3.340
Radial Grid Type                 RadialGrid  ... Gauss-Chebyshev
Angular Grid (max. acc.)         AngularGrid ... Lebedev-50
Angular grid pruning method      GridPruning ... 3 (G Style)
Weight generation scheme         WeightScheme... Becke
Basis function cutoff            BFCut       ...    1.0000e-11
Integration weight cutoff        WCut        ...    1.0000e-14
Grids for H and He will be reduced by one unit

# of grid points (after initial pruning)     ...  22650 (   0.0 sec)
# of grid points (after weights+screening)   ...  20722 (   0.0 sec)
nearest neighbour list constructed           ...    0.0 sec
Grid point re-assignment to atoms done       ...    0.0 sec
Grid point division into batches done        ...    0.0 sec
Reduced shell lists constructed in    0.0 sec

Total number of grid points                  ...    20722
Total number of batches                      ...      344
Average number of points per batch           ...       60
Average number of grid points per atom       ...      460
Average number of shells per batch           ...   144.81 (35.84%)
Average number of basis functions per batch  ...   378.56 (35.38%)
Average number of large shells per batch     ...   102.19 (70.57%)
Average number of large basis fcns per batch ...   267.44 (70.65%)
Maximum spatial batch extension              ...   5.97, 17.91,  7.11 au
Average spatial batch extension              ...   0.12,  0.27,  0.12 au

Overlap Fitting                  UseSFitting ... on
Constructing numerical overlap ... done (      0.1 sec)
Inverting numerical overlap    ... done (      0.1 sec)
Obtaining analytic overlap     ... done (      0.0 sec)
Final contraction and storage  ... done (      0.4 sec)


General Integration Accuracy     IntAcc      ...  3.670
Radial Grid Type                 RadialGrid  ... Gauss-Chebyshev
Angular Grid (max. acc.)         AngularGrid ... Lebedev-50
Angular grid pruning method      GridPruning ... 3 (G Style)
Weight generation scheme         WeightScheme... Becke
Basis function cutoff            BFCut       ...    1.0000e-11
Integration weight cutoff        WCut        ...    1.0000e-14
Grids for H and He will be reduced by one unit

# of grid points (after initial pruning)     ...  28332 (   0.0 sec)
# of grid points (after weights+screening)   ...  25843 (   0.1 sec)
nearest neighbour list constructed           ...    0.0 sec
Grid point re-assignment to atoms done       ...    0.0 sec
Grid point division into batches done        ...    0.0 sec
Reduced shell lists constructed in    0.1 sec

Total number of grid points                  ...    25843
Total number of batches                      ...      425
Average number of points per batch           ...       60
Average number of grid points per atom       ...      574
Average number of shells per batch           ...   144.89 (35.87%)
Average number of basis functions per batch  ...   379.21 (35.44%)
Average number of large shells per batch     ...   102.21 (70.54%)
Average number of large basis fcns per batch ...   268.53 (70.81%)
Maximum spatial batch extension              ...   4.54, 26.68,  5.00 au
Average spatial batch extension              ...   0.10,  0.27,  0.10 au

Overlap Fitting                  UseSFitting ... on
Constructing numerical overlap ... done (      0.1 sec)
Inverting numerical overlap    ... done (      0.1 sec)
Obtaining analytic overlap     ... done (      0.0 sec)
Final contraction and storage  ... done (      0.4 sec)


General Integration Accuracy     IntAcc      ...  4.010
Radial Grid Type                 RadialGrid  ... Gauss-Chebyshev
Angular Grid (max. acc.)         AngularGrid ... Lebedev-110
Angular grid pruning method      GridPruning ... 3 (G Style)
Weight generation scheme         WeightScheme... Becke
Basis function cutoff            BFCut       ...    1.0000e-11
Integration weight cutoff        WCut        ...    1.0000e-14
Grids for H and He will be reduced by one unit

# of grid points (after initial pruning)     ...  55522 (   0.0 sec)
# of grid points (after weights+screening)   ...  50120 (   0.1 sec)
nearest neighbour list constructed           ...    0.0 sec
Grid point re-assignment to atoms done       ...    0.0 sec
Grid point division into batches done        ...    0.0 sec
Reduced shell lists constructed in    0.1 sec

Total number of grid points                  ...    50120
Total number of batches                      ...      803
Average number of points per batch           ...       62
Average number of grid points per atom       ...     1114
Average number of shells per batch           ...   143.91 (35.62%)
Average number of basis functions per batch  ...   376.37 (35.17%)
Average number of large shells per batch     ...    99.60 (69.21%)
Average number of large basis fcns per batch ...   259.77 (69.02%)
Maximum spatial batch extension              ...   8.00, 18.24, 10.52 au
Average spatial batch extension              ...   0.09,  0.16,  0.10 au

Overlap Fitting                  UseSFitting ... on
Constructing numerical overlap ... done (      0.2 sec)
Inverting numerical overlap    ... done (      0.1 sec)
Obtaining analytic overlap     ... done (      0.0 sec)
Final contraction and storage  ... done (      0.4 sec)

Time for X-Grid setup             =    2.982 sec
--------------
SCF ITERATIONS
--------------
ITER       Energy         Delta-E        Max-DP      RMS-DP      [F,P]     Damp
               ***  Starting incremental Fock matrix formation  ***
  0  -1421.2557863014   0.000000000000 0.02913159  0.00054923  0.1397598 0.7000
  1  -1421.4382125357  -0.182426234287 0.02269895  0.00045403  0.0878403 0.7000
                               ***Turning on DIIS***
  2  -1421.5364815981  -0.098269062431 0.06041315  0.00105144  0.0499972 0.0000
  3  -1421.7066798105  -0.170198212364 0.01463726  0.00024703  0.0337278 0.0000
  4  -1421.7262588117  -0.019579001230 0.00873321  0.00008817  0.0155750 0.0000
  5  -1421.7270755495  -0.000816737800 0.00315923  0.00003626  0.0078693 0.0000
                      *** Initiating the SOSCF procedure ***
                           *** Shutting down DIIS ***
                      *** Re-Reading the Fockian *** 
                      *** Removing any level shift *** 
ITER      Energy       Delta-E        Grad      Rot      Max-DP    RMS-DP
  6  -1421.72732199  -0.0002464450  0.001422  0.001422  0.002237  0.000022
               *** Restarting incremental Fock matrix formation ***
  7  -1421.72740335  -0.0000813548  0.001019  0.002922  0.007970  0.000094
  8  -1421.72743536  -0.0000320155  0.000548  0.003733  0.005553  0.000068
  9  -1421.72744442  -0.0000090588  0.000333  0.000728  0.004947  0.000058
 10  -1421.72744876  -0.0000043395  0.000111  0.000156  0.000950  0.000012
 11  -1421.72744902  -0.0000002533  0.000077  0.000175  0.000619  0.000007
 12  -1421.72744920  -0.0000001879  0.000014  0.000064  0.000195  0.000002
 13  -1421.72744913   0.0000000714  0.000010  0.000021  0.000174  0.000001
                  ***Gradient check signals convergence***
              ***Rediagonalizing the Fockian in SOSCF/NRSCF***

               *****************************************************
               *                     SUCCESS                       *
               *           SCF CONVERGED AFTER  14 CYCLES          *
               *****************************************************

Old exchange energy                            =    -59.668249559 Eh
New exchange energy                            =    -59.667986528 Eh
Exchange energy change after final integration =      0.000263030 Eh
Total energy after final integration           =  -1421.727186163 Eh
Final COS-X integration done in                =    29.834 sec

----------------
TOTAL SCF ENERGY
----------------

Total Energy       :        -1421.72718616 Eh          -38687.16355 eV

Components:
Nuclear Repulsion  :         2722.93340183 Eh           74094.78477 eV
Electronic Energy  :        -4144.66058799 Eh         -112781.94832 eV
One Electron Energy:        -7342.08470114 Eh         -199788.28176 eV
Two Electron Energy:         3197.42411315 Eh           87006.33344 eV

Virial components:
Potential Energy   :        -2836.27384947 Eh          -77178.93515 eV
Kinetic Energy     :         1414.54666331 Eh           38491.77159 eV
Virial Ratio       :            2.00507620


DFT components:
N(Alpha)           :      107.999991524195 electrons
N(Beta)            :      107.999991524195 electrons
N(Total)           :      215.999983048390 electrons
E(XC)              :     -135.313268680973 Eh       

---------------
SCF CONVERGENCE
---------------

  Last Energy change         ...   -5.9798e-08  Tolerance :   1.0000e-08
  Last MAX-Density change    ...    1.6126e-14  Tolerance :   1.0000e-07
  Last RMS-Density change    ...    1.2105e-16  Tolerance :   5.0000e-09
  Last Orbital Gradient      ...    2.0935e-06  Tolerance :   1.0000e-05
  Last Orbital Rotation      ...    5.5360e-06  Tolerance :   1.0000e-05

             **** THE GBW FILE WAS UPDATED (total.gbw) ****
             **** DENSITY FILE WAS UPDATED (total.scfp.tmp) ****
             **** ENERGY FILE WAS UPDATED (total.en.tmp) ****
----------------
ORBITAL ENERGIES
----------------

  NO   OCC          E(Eh)            E(eV) 
   0   2.0000     -19.386407      -527.5310 
   1   2.0000     -19.341988      -526.3222 
   2   2.0000     -19.341652      -526.3131 
   3   2.0000     -14.512047      -394.8929 
   4   2.0000     -14.512014      -394.8920 
   5   2.0000     -14.487170      -394.2159 
   6   2.0000     -14.485743      -394.1771 
   7   2.0000     -14.473746      -393.8506 
   8   2.0000     -10.374893      -282.3152 
   9   2.0000     -10.371685      -282.2279 
  10   2.0000     -10.353709      -281.7387 
  11   2.0000     -10.350768      -281.6587 
  12   2.0000     -10.348277      -281.5909 
  13   2.0000     -10.345919      -281.5268 
  14   2.0000     -10.341234      -281.3993 
  15   2.0000     -10.337237      -281.2905 
  16   2.0000     -10.329953      -281.0923 
  17   2.0000     -10.325731      -280.9774 
  18   2.0000     -10.322762      -280.8966 
  19   2.0000     -10.322313      -280.8844 
  20   2.0000     -10.321583      -280.8645 
  21   2.0000     -10.307155      -280.4719 
  22   2.0000     -10.305157      -280.4176 
  23   2.0000     -10.304225      -280.3922 
  24   2.0000     -10.300482      -280.2904 
  25   2.0000     -10.297895      -280.2200 
  26   2.0000     -10.295723      -280.1609 
  27   2.0000     -10.294030      -280.1148 
  28   2.0000     -10.288659      -279.9686 
  29   2.0000     -10.287338      -279.9327 
  30   2.0000     -10.284660      -279.8598 
  31   2.0000     -10.275911      -279.6218 
  32   2.0000      -1.332232       -36.2519 
  33   2.0000      -1.291877       -35.1538 
  34   2.0000      -1.288240       -35.0548 
  35   2.0000      -1.111180       -30.2367 
  36   2.0000      -1.043574       -28.3971 
  37   2.0000      -1.037340       -28.2274 
  38   2.0000      -1.016628       -27.6639 
  39   2.0000      -0.994786       -27.0695 
  40   2.0000      -0.984492       -26.7894 
  41   2.0000      -0.968217       -26.3465 
  42   2.0000      -0.951810       -25.9001 
  43   2.0000      -0.941978       -25.6325 
  44   2.0000      -0.923351       -25.1257 
  45   2.0000      -0.905853       -24.6495 
  46   2.0000      -0.899484       -24.4762 
  47   2.0000      -0.875776       -23.8311 
  48   2.0000      -0.850251       -23.1365 
  49   2.0000      -0.844609       -22.9830 
  50   2.0000      -0.810843       -22.0641 
  51   2.0000      -0.787421       -21.4268 
  52   2.0000      -0.775936       -21.1143 
  53   2.0000      -0.766687       -20.8626 
  54   2.0000      -0.763150       -20.7664 
  55   2.0000      -0.737415       -20.0661 
  56   2.0000      -0.729188       -19.8422 
  57   2.0000      -0.718768       -19.5587 
  58   2.0000      -0.716332       -19.4924 
  59   2.0000      -0.705188       -19.1891 
  60   2.0000      -0.675685       -18.3863 
  61   2.0000      -0.667175       -18.1548 
  62   2.0000      -0.648480       -17.6460 
  63   2.0000      -0.635212       -17.2850 
  64   2.0000      -0.631707       -17.1896 
  65   2.0000      -0.627970       -17.0879 
  66   2.0000      -0.619410       -16.8550 
  67   2.0000      -0.611782       -16.6474 
  68   2.0000      -0.610877       -16.6228 
  69   2.0000      -0.606406       -16.5011 
  70   2.0000      -0.602062       -16.3829 
  71   2.0000      -0.595521       -16.2050 
  72   2.0000      -0.576655       -15.6916 
  73   2.0000      -0.567871       -15.4526 
  74   2.0000      -0.563338       -15.3292 
  75   2.0000      -0.552878       -15.0446 
  76   2.0000      -0.551488       -15.0068 
  77   2.0000      -0.543147       -14.7798 
  78   2.0000      -0.534493       -14.5443 
  79   2.0000      -0.533514       -14.5177 
  80   2.0000      -0.528006       -14.3678 
  81   2.0000      -0.526619       -14.3300 
  82   2.0000      -0.510938       -13.9033 
  83   2.0000      -0.510392       -13.8885 
  84   2.0000      -0.504477       -13.7275 
  85   2.0000      -0.499536       -13.5931 
  86   2.0000      -0.493735       -13.4352 
  87   2.0000      -0.476703       -12.9717 
  88   2.0000      -0.472289       -12.8516 
  89   2.0000      -0.471364       -12.8265 
  90   2.0000      -0.456638       -12.4258 
  91   2.0000      -0.449321       -12.2266 
  92   2.0000      -0.446985       -12.1631 
  93   2.0000      -0.444641       -12.0993 
  94   2.0000      -0.440992       -12.0000 
  95   2.0000      -0.431748       -11.7485 
  96   2.0000      -0.428322       -11.6552 
  97   2.0000      -0.420631       -11.4460 
  98   2.0000      -0.409601       -11.1458 
  99   2.0000      -0.409195       -11.1348 
 100   2.0000      -0.395516       -10.7625 
 101   2.0000      -0.390940       -10.6380 
 102   2.0000      -0.375182       -10.2092 
 103   2.0000      -0.350320        -9.5327 
 104   2.0000      -0.338024        -9.1981 
 105   2.0000      -0.327183        -8.9031 
 106   2.0000      -0.304408        -8.2834 
 107   2.0000      -0.293345        -7.9823 
 108   0.0000      -0.041925        -1.1408 
 109   0.0000      -0.003511        -0.0955 
 110   0.0000       0.015293         0.4161 
 111   0.0000       0.046470         1.2645 
 112   0.0000       0.051525         1.4021 
 113   0.0000       0.063941         1.7399 
 114   0.0000       0.080081         2.1791 
 115   0.0000       0.092837         2.5262 
 116   0.0000       0.106130         2.8879 
 117   0.0000       0.113945         3.1006 
 118   0.0000       0.123271         3.3544 
 119   0.0000       0.124993         3.4012 
 120   0.0000       0.131152         3.5688 
 121   0.0000       0.133890         3.6433 
 122   0.0000       0.141761         3.8575 
 123   0.0000       0.148242         4.0339 
 124   0.0000       0.153321         4.1721 
 125   0.0000       0.159770         4.3476 
 126   0.0000       0.163304         4.4437 
 127   0.0000       0.169497         4.6122 
 128   0.0000       0.170879         4.6498 
 129   0.0000       0.174910         4.7595 
 130   0.0000       0.176857         4.8125 
 131   0.0000       0.182539         4.9671 
 132   0.0000       0.186206         5.0669 
 133   0.0000       0.189359         5.1527 
 134   0.0000       0.199265         5.4223 
 135   0.0000       0.201459         5.4820 
 136   0.0000       0.206859         5.6289 
 137   0.0000       0.209980         5.7138 
 138   0.0000       0.215255         5.8574 
 139   0.0000       0.224016         6.0958 
 140   0.0000       0.227801         6.1988 
 141   0.0000       0.231596         6.3020 
 142   0.0000       0.233772         6.3613 
 143   0.0000       0.235856         6.4180 
 144   0.0000       0.238661         6.4943 
 145   0.0000       0.246360         6.7038 
 146   0.0000       0.252112         6.8603 
 147   0.0000       0.256512         6.9800 
 148   0.0000       0.258265         7.0278 
 149   0.0000       0.262323         7.1382 
 150   0.0000       0.262777         7.1505 
 151   0.0000       0.268152         7.2968 
 152   0.0000       0.273803         7.4505 
 153   0.0000       0.277747         7.5579 
 154   0.0000       0.280517         7.6332 
 155   0.0000       0.283293         7.7088 
 156   0.0000       0.287269         7.8170 
 157   0.0000       0.290150         7.8954 
 158   0.0000       0.292863         7.9692 
 159   0.0000       0.295091         8.0298 
 160   0.0000       0.297160         8.0861 
 161   0.0000       0.300704         8.1826 
 162   0.0000       0.302038         8.2189 
 163   0.0000       0.312723         8.5096 
 164   0.0000       0.315148         8.5756 
 165   0.0000       0.317503         8.6397 
 166   0.0000       0.322413         8.7733 
 167   0.0000       0.324293         8.8244 
 168   0.0000       0.327913         8.9230 
 169   0.0000       0.333598         9.0777 
 170   0.0000       0.337084         9.1725 
 171   0.0000       0.341727         9.2989 
 172   0.0000       0.346154         9.4193 
 173   0.0000       0.350517         9.5380 
 174   0.0000       0.354033         9.6337 
 175   0.0000       0.356677         9.7057 
 176   0.0000       0.363191         9.8829 
 177   0.0000       0.366203         9.9649 
 178   0.0000       0.368322        10.0226 
 179   0.0000       0.368590        10.0299 
 180   0.0000       0.371831        10.1180 
 181   0.0000       0.375031        10.2051 
 182   0.0000       0.376655        10.2493 
 183   0.0000       0.382852        10.4179 
 184   0.0000       0.387726        10.5506 
 185   0.0000       0.391432        10.6514 
 186   0.0000       0.397329        10.8119 
 187   0.0000       0.398882        10.8541 
 188   0.0000       0.399922        10.8824 
 189   0.0000       0.407812        11.0971 
 190   0.0000       0.411730        11.2038 
 191   0.0000       0.417533        11.3617 
 192   0.0000       0.420307        11.4371 
 193   0.0000       0.421088        11.4584 
 194   0.0000       0.426126        11.5955 
 195   0.0000       0.428316        11.6551 
 196   0.0000       0.431480        11.7412 
 197   0.0000       0.433833        11.8052 
 198   0.0000       0.435266        11.8442 
 199   0.0000       0.438443        11.9306 
 200   0.0000       0.440292        11.9810 
 201   0.0000       0.442797        12.0491 
 202   0.0000       0.449905        12.2425 
 203   0.0000       0.451007        12.2725 
 204   0.0000       0.454365        12.3639 
 205   0.0000       0.458356        12.4725 
 206   0.0000       0.462924        12.5968 
 207   0.0000       0.464546        12.6409 
 208   0.0000       0.468515        12.7489 
 209   0.0000       0.469291        12.7700 
 210   0.0000       0.470590        12.8054 
 211   0.0000       0.476624        12.9696 
 212   0.0000       0.477312        12.9883 
 213   0.0000       0.481110        13.0917 
 214   0.0000       0.485395        13.2083 
 215   0.0000       0.489899        13.3308 
 216   0.0000       0.495176        13.4744 
 217   0.0000       0.496037        13.4978 
 218   0.0000       0.501228        13.6391 
 219   0.0000       0.503530        13.7017 
 220   0.0000       0.506880        13.7929 
 221   0.0000       0.507530        13.8106 
 222   0.0000       0.512594        13.9484 
 223   0.0000       0.517925        14.0935 
 224   0.0000       0.524063        14.2605 
 225   0.0000       0.525445        14.2981 
 226   0.0000       0.526614        14.3299 
 227   0.0000       0.532238        14.4829 
 228   0.0000       0.536230        14.5916 
 229   0.0000       0.541328        14.7303 
 230   0.0000       0.543890        14.8000 
 231   0.0000       0.547152        14.8888 
 232   0.0000       0.550578        14.9820 
 233   0.0000       0.551888        15.0176 
 234   0.0000       0.552925        15.0459 
 235   0.0000       0.553679        15.0664 
 236   0.0000       0.557244        15.1634 
 237   0.0000       0.561076        15.2677 
 238   0.0000       0.565538        15.3891 
 239   0.0000       0.567873        15.4526 
 240   0.0000       0.571013        15.5381 
 241   0.0000       0.576640        15.6912 
 242   0.0000       0.583519        15.8784 
 243   0.0000       0.584796        15.9131 
 244   0.0000       0.592052        16.1106 
 245   0.0000       0.593144        16.1403 
 246   0.0000       0.603506        16.4222 
 247   0.0000       0.606060        16.4917 
 248   0.0000       0.609347        16.5812 
 249   0.0000       0.611346        16.6356 
 250   0.0000       0.622126        16.9289 
 251   0.0000       0.627223        17.0676 
 252   0.0000       0.631179        17.1752 
 253   0.0000       0.636406        17.3175 
 254   0.0000       0.642564        17.4851 
 255   0.0000       0.648045        17.6342 
 256   0.0000       0.651669        17.7328 
 257   0.0000       0.659549        17.9472 
 258   0.0000       0.662215        18.0198 
 259   0.0000       0.666275        18.1303 
 260   0.0000       0.670539        18.2463 
 261   0.0000       0.678370        18.4594 
 262   0.0000       0.679226        18.4827 
 263   0.0000       0.681710        18.5503 
 264   0.0000       0.685904        18.6644 
 265   0.0000       0.688312        18.7299 
 266   0.0000       0.694495        18.8982 
 267   0.0000       0.697163        18.9708 
 268   0.0000       0.701148        19.0792 
 269   0.0000       0.703334        19.1387 
 270   0.0000       0.707637        19.2558 
 271   0.0000       0.714450        19.4412 
 272   0.0000       0.717475        19.5235 
 273   0.0000       0.719328        19.5739 
 274   0.0000       0.721259        19.6265 
 275   0.0000       0.728992        19.8369 
 276   0.0000       0.733548        19.9609 
 277   0.0000       0.740554        20.1515 
 278   0.0000       0.743165        20.2226 
 279   0.0000       0.745534        20.2870 
 280   0.0000       0.748900        20.3786 
 281   0.0000       0.758880        20.6502 
 282   0.0000       0.760471        20.6935 
 283   0.0000       0.766533        20.8584 
 284   0.0000       0.770554        20.9678 
 285   0.0000       0.771435        20.9918 
 286   0.0000       0.775062        21.0905 
 287   0.0000       0.777995        21.1703 
 288   0.0000       0.779768        21.2186 
 289   0.0000       0.786858        21.4115 
 290   0.0000       0.790416        21.5083 
 291   0.0000       0.792056        21.5529 
 292   0.0000       0.797771        21.7085 
 293   0.0000       0.799345        21.7513 
 294   0.0000       0.801758        21.8169 
 295   0.0000       0.805923        21.9303 
 296   0.0000       0.817624        22.2487 
 297   0.0000       0.818625        22.2759 
 298   0.0000       0.824569        22.4377 
 299   0.0000       0.827231        22.5101 
 300   0.0000       0.830579        22.6012 
 301   0.0000       0.838627        22.8202 
 302   0.0000       0.840333        22.8666 
 303   0.0000       0.844166        22.9709 
 304   0.0000       0.849301        23.1107 
 305   0.0000       0.850859        23.1531 
 306   0.0000       0.857888        23.3443 
 307   0.0000       0.863737        23.5035 
 308   0.0000       0.865954        23.5638 
 309   0.0000       0.876727        23.8569 
 310   0.0000       0.879333        23.9279 
 311   0.0000       0.882901        24.0250 
 312   0.0000       0.892520        24.2867 
 313   0.0000       0.896114        24.3845 
 314   0.0000       0.903238        24.5784 
 315   0.0000       0.911560        24.8048 
 316   0.0000       0.914955        24.8972 
 317   0.0000       0.918656        24.9979 
 318   0.0000       0.920671        25.0527 
 319   0.0000       0.926422        25.2092 
 320   0.0000       0.927934        25.2504 
 321   0.0000       0.933661        25.4062 
 322   0.0000       0.940007        25.5789 
 323   0.0000       0.945838        25.7376 
 324   0.0000       0.949498        25.8371 
 325   0.0000       0.951227        25.8842 
 326   0.0000       0.958377        26.0788 
 327   0.0000       0.959539        26.1104 
 328   0.0000       0.963549        26.2195 
 329   0.0000       0.965753        26.2795 
 330   0.0000       0.976335        26.5674 
 331   0.0000       0.987230        26.8639 
 332   0.0000       0.988129        26.8884 
 333   0.0000       0.995118        27.0785 
 334   0.0000       0.997549        27.1447 
 335   0.0000       0.999756        27.2048 
 336   0.0000       1.016018        27.6473 
 337   0.0000       1.021454        27.7952 
 338   0.0000       1.026084        27.9212 
 339   0.0000       1.032539        28.0968 
 340   0.0000       1.034785        28.1579 
 341   0.0000       1.042366        28.3642 
 342   0.0000       1.055938        28.7335 
 343   0.0000       1.057310        28.7709 
 344   0.0000       1.059680        28.8354 
 345   0.0000       1.074662        29.2430 
 346   0.0000       1.076489        29.2928 
 347   0.0000       1.077756        29.3272 
 348   0.0000       1.083715        29.4894 
 349   0.0000       1.093784        29.7634 
 350   0.0000       1.096089        29.8261 
 351   0.0000       1.098724        29.8978 
 352   0.0000       1.111575        30.2475 
 353   0.0000       1.121942        30.5296 
 354   0.0000       1.125427        30.6244 
 355   0.0000       1.133025        30.8312 
 356   0.0000       1.135705        30.9041 
 357   0.0000       1.142415        31.0867 
 358   0.0000       1.148652        31.2564 
 359   0.0000       1.151523        31.3345 
 360   0.0000       1.159768        31.5589 
 361   0.0000       1.172154        31.8959 
 362   0.0000       1.174695        31.9651 
 363   0.0000       1.177919        32.0528 
 364   0.0000       1.184242        32.2249 
 365   0.0000       1.188313        32.3357 
 366   0.0000       1.197062        32.5737 
 367   0.0000       1.199590        32.6425 
 368   0.0000       1.205378        32.8000 
 369   0.0000       1.219922        33.1958 
 370   0.0000       1.221702        33.2442 
 371   0.0000       1.224769        33.3277 
 372   0.0000       1.231462        33.5098 
 373   0.0000       1.241294        33.7773 
 374   0.0000       1.247806        33.9545 
 375   0.0000       1.254201        34.1285 
 376   0.0000       1.269712        34.5506 
 377   0.0000       1.272759        34.6335 
 378   0.0000       1.277305        34.7572 
 379   0.0000       1.281739        34.8779 
 380   0.0000       1.290148        35.1067 
 381   0.0000       1.295217        35.2446 
 382   0.0000       1.299558        35.3628 
 383   0.0000       1.306437        35.5500 
 384   0.0000       1.313905        35.7532 
 385   0.0000       1.317895        35.8617 
 386   0.0000       1.323951        36.0265 
 387   0.0000       1.330477        36.2041 
 388   0.0000       1.331180        36.2233 
 389   0.0000       1.337527        36.3960 
 390   0.0000       1.340344        36.4726 
 391   0.0000       1.353499        36.8306 
 392   0.0000       1.356056        36.9002 
 393   0.0000       1.358093        36.9556 
 394   0.0000       1.363661        37.1071 
 395   0.0000       1.373024        37.3619 
 396   0.0000       1.375613        37.4323 
 397   0.0000       1.385368        37.6978 
 398   0.0000       1.386815        37.7372 
 399   0.0000       1.399234        38.0751 
 400   0.0000       1.402496        38.1638 
 401   0.0000       1.405134        38.2356 
 402   0.0000       1.406675        38.2776 
 403   0.0000       1.413553        38.4647 
 404   0.0000       1.429785        38.9064 
 405   0.0000       1.431789        38.9610 
 406   0.0000       1.433860        39.0173 
 407   0.0000       1.439435        39.1690 
 408   0.0000       1.445130        39.3240 
 409   0.0000       1.448804        39.4240 
 410   0.0000       1.454672        39.5836 
 411   0.0000       1.462033        39.7839 
 412   0.0000       1.475359        40.1465 
 413   0.0000       1.478291        40.2263 
 414   0.0000       1.485867        40.4325 
 415   0.0000       1.492502        40.6130 
 416   0.0000       1.497271        40.7428 
 417   0.0000       1.504402        40.9369 
 418   0.0000       1.510323        41.0980 
 419   0.0000       1.512262        41.1507 
 420   0.0000       1.517119        41.2829 
 421   0.0000       1.520601        41.3777 
 422   0.0000       1.531606        41.6771 
 423   0.0000       1.532857        41.7112 
 424   0.0000       1.541211        41.9385 
 425   0.0000       1.546814        42.0910 
 426   0.0000       1.552090        42.2345 
 427   0.0000       1.555040        42.3148 
 428   0.0000       1.562876        42.5280 
 429   0.0000       1.565189        42.5910 
 430   0.0000       1.569275        42.7022 
 431   0.0000       1.572229        42.7825 
 432   0.0000       1.579173        42.9715 
 433   0.0000       1.583959        43.1017 
 434   0.0000       1.586737        43.1773 
 435   0.0000       1.591729        43.3131 
 436   0.0000       1.603943        43.6455 
 437   0.0000       1.605269        43.6816 
 438   0.0000       1.606373        43.7116 
 439   0.0000       1.609558        43.7983 
 440   0.0000       1.610988        43.8372 
 441   0.0000       1.612566        43.8801 
 442   0.0000       1.614614        43.9359 
 443   0.0000       1.625891        44.2427 
 444   0.0000       1.639470        44.6122 
 445   0.0000       1.641395        44.6646 
 446   0.0000       1.648183        44.8493 
 447   0.0000       1.655522        45.0491 
 448   0.0000       1.659168        45.1483 
 449   0.0000       1.662225        45.2314 
 450   0.0000       1.671884        45.4943 
 451   0.0000       1.677899        45.6579 
 452   0.0000       1.691023        46.0151 
 453   0.0000       1.694069        46.0980 
 454   0.0000       1.695099        46.1260 
 455   0.0000       1.698490        46.2183 
 456   0.0000       1.704027        46.3689 
 457   0.0000       1.711452        46.5710 
 458   0.0000       1.717188        46.7271 
 459   0.0000       1.728719        47.0408 
 460   0.0000       1.737640        47.2836 
 461   0.0000       1.741084        47.3773 
 462   0.0000       1.745188        47.4890 
 463   0.0000       1.754708        47.7480 
 464   0.0000       1.758670        47.8558 
 465   0.0000       1.759522        47.8790 
 466   0.0000       1.763899        47.9981 
 467   0.0000       1.766823        48.0777 
 468   0.0000       1.781478        48.4765 
 469   0.0000       1.786153        48.6037 
 470   0.0000       1.787546        48.6416 
 471   0.0000       1.790821        48.7307 
 472   0.0000       1.794982        48.8439 
 473   0.0000       1.799281        48.9609 
 474   0.0000       1.812016        49.3075 
 475   0.0000       1.812756        49.3276 
 476   0.0000       1.821675        49.5703 
 477   0.0000       1.826055        49.6895 
 478   0.0000       1.833206        49.8841 
 479   0.0000       1.835238        49.9394 
 480   0.0000       1.846887        50.2564 
 481   0.0000       1.850981        50.3677 
 482   0.0000       1.858951        50.5846 
 483   0.0000       1.861014        50.6408 
 484   0.0000       1.874716        51.0136 
 485   0.0000       1.897890        51.6442 
 486   0.0000       1.899147        51.6784 
 487   0.0000       1.901926        51.7540 
 488   0.0000       1.911810        52.0230 
 489   0.0000       1.921412        52.2843 
 490   0.0000       1.936530        52.6957 
 491   0.0000       1.938800        52.7574 
 492   0.0000       1.946004        52.9535 
 493   0.0000       1.952441        53.1286 
 494   0.0000       1.956188        53.2306 
 495   0.0000       1.965666        53.4885 
 496   0.0000       1.967811        53.5469 
 497   0.0000       1.978659        53.8420 
 498   0.0000       1.984204        53.9929 
 499   0.0000       1.992539        54.2198 
 500   0.0000       1.995593        54.3028 
 501   0.0000       2.002382        54.4876 
 502   0.0000       2.006405        54.5971 
 503   0.0000       2.013464        54.7891 
 504   0.0000       2.018878        54.9365 
 505   0.0000       2.021420        55.0056 
 506   0.0000       2.028870        55.2084 
 507   0.0000       2.044985        55.6469 
 508   0.0000       2.046799        55.6962 
 509   0.0000       2.055719        55.9390 
 510   0.0000       2.062365        56.1198 
 511   0.0000       2.078269        56.5526 
 512   0.0000       2.082895        56.6785 
 513   0.0000       2.084106        56.7114 
 514   0.0000       2.087851        56.8133 
 515   0.0000       2.097077        57.0644 
 516   0.0000       2.098269        57.0968 
 517   0.0000       2.113646        57.5152 
 518   0.0000       2.119705        57.6801 
 519   0.0000       2.124982        57.8237 
 520   0.0000       2.131869        58.0111 
 521   0.0000       2.136023        58.1241 
 522   0.0000       2.145529        58.3828 
 523   0.0000       2.155956        58.6666 
 524   0.0000       2.160739        58.7967 
 525   0.0000       2.168176        58.9991 
 526   0.0000       2.169944        59.0472 
 527   0.0000       2.176043        59.2132 
 528   0.0000       2.179625        59.3106 
 529   0.0000       2.186882        59.5081 
 530   0.0000       2.190000        59.5929 
 531   0.0000       2.192118        59.6506 
 532   0.0000       2.203378        59.9570 
 533   0.0000       2.207734        60.0755 
 534   0.0000       2.222843        60.4866 
 535   0.0000       2.226785        60.5939 
 536   0.0000       2.238976        60.9256 
 537   0.0000       2.241118        60.9839 
 538   0.0000       2.252171        61.2847 
 539   0.0000       2.261609        61.5415 
 540   0.0000       2.266214        61.6668 
 541   0.0000       2.281177        62.0740 
 542   0.0000       2.290815        62.3363 
 543   0.0000       2.294852        62.4461 
 544   0.0000       2.297294        62.5125 
 545   0.0000       2.302959        62.6667 
 546   0.0000       2.305375        62.7324 
 547   0.0000       2.310255        62.8652 
 548   0.0000       2.311285        62.8933 
 549   0.0000       2.321399        63.1685 
 550   0.0000       2.325738        63.2866 
 551   0.0000       2.330221        63.4085 
 552   0.0000       2.345584        63.8266 
 553   0.0000       2.349945        63.9452 
 554   0.0000       2.351384        63.9844 
 555   0.0000       2.355250        64.0896 
 556   0.0000       2.372553        64.5604 
 557   0.0000       2.379051        64.7373 
 558   0.0000       2.389185        65.0130 
 559   0.0000       2.397913        65.2505 
 560   0.0000       2.404869        65.4398 
 561   0.0000       2.416488        65.7560 
 562   0.0000       2.422822        65.9283 
 563   0.0000       2.425478        66.0006 
 564   0.0000       2.433195        66.2106 
 565   0.0000       2.440994        66.4228 
 566   0.0000       2.447353        66.5959 
 567   0.0000       2.452500        66.7359 
 568   0.0000       2.458010        66.8858 
 569   0.0000       2.464835        67.0716 
 570   0.0000       2.469345        67.1943 
 571   0.0000       2.492014        67.8111 
 572   0.0000       2.495641        67.9098 
 573   0.0000       2.502002        68.0829 
 574   0.0000       2.514462        68.4220 
 575   0.0000       2.527817        68.7854 
 576   0.0000       2.536018        69.0085 
 577   0.0000       2.538970        69.0889 
 578   0.0000       2.552722        69.4631 
 579   0.0000       2.570107        69.9362 
 580   0.0000       2.574348        70.0516 
 581   0.0000       2.578661        70.1689 
 582   0.0000       2.583002        70.2871 
 583   0.0000       2.590862        70.5009 
 584   0.0000       2.602385        70.8145 
 585   0.0000       2.603161        70.8356 
 586   0.0000       2.616003        71.1851 
 587   0.0000       2.625601        71.4462 
 588   0.0000       2.630300        71.5741 
 589   0.0000       2.638596        71.7998 
 590   0.0000       2.647274        72.0360 
 591   0.0000       2.658600        72.3442 
 592   0.0000       2.661076        72.4116 
 593   0.0000       2.668362        72.6098 
 594   0.0000       2.673333        72.7451 
 595   0.0000       2.684031        73.0362 
 596   0.0000       2.686602        73.1062 
 597   0.0000       2.688014        73.1446 
 598   0.0000       2.695535        73.3492 
 599   0.0000       2.707794        73.6828 
 600   0.0000       2.713185        73.8295 
 601   0.0000       2.714960        73.8778 
 602   0.0000       2.721476        74.0551 
 603   0.0000       2.723324        74.1054 
 604   0.0000       2.728756        74.2532 
 605   0.0000       2.729817        74.2821 
 606   0.0000       2.735652        74.4409 
 607   0.0000       2.741570        74.6019 
 608   0.0000       2.743878        74.6647 
 609   0.0000       2.759507        75.0900 
 610   0.0000       2.761592        75.1467 
 611   0.0000       2.765642        75.2569 
 612   0.0000       2.771055        75.4042 
 613   0.0000       2.776363        75.5487 
 614   0.0000       2.780184        75.6526 
 615   0.0000       2.784377        75.7667 
 616   0.0000       2.789996        75.9197 
 617   0.0000       2.792547        75.9891 
 618   0.0000       2.802373        76.2565 
 619   0.0000       2.804035        76.3017 
 620   0.0000       2.805827        76.3504 
 621   0.0000       2.813901        76.5701 
 622   0.0000       2.822403        76.8015 
 623   0.0000       2.826421        76.9108 
 624   0.0000       2.838508        77.2397 
 625   0.0000       2.838777        77.2470 
 626   0.0000       2.841272        77.3149 
 627   0.0000       2.847957        77.4968 
 628   0.0000       2.850480        77.5655 
 629   0.0000       2.856728        77.7355 
 630   0.0000       2.864367        77.9434 
 631   0.0000       2.865027        77.9614 
 632   0.0000       2.871070        78.1258 
 633   0.0000       2.873136        78.1820 
 634   0.0000       2.880653        78.3865 
 635   0.0000       2.886515        78.5461 
 636   0.0000       2.887871        78.5830 
 637   0.0000       2.893386        78.7330 
 638   0.0000       2.896684        78.8228 
 639   0.0000       2.901970        78.9666 
 640   0.0000       2.909695        79.1768 
 641   0.0000       2.913462        79.2793 
 642   0.0000       2.914673        79.3123 
 643   0.0000       2.918654        79.4206 
 644   0.0000       2.923253        79.5458 
 645   0.0000       2.927889        79.6719 
 646   0.0000       2.935095        79.8680 
 647   0.0000       2.941858        80.0520 
 648   0.0000       2.946144        80.1687 
 649   0.0000       2.954351        80.3920 
 650   0.0000       2.962404        80.6111 
 651   0.0000       2.966533        80.7235 
 652   0.0000       2.972905        80.8969 
 653   0.0000       2.975222        80.9599 
 654   0.0000       2.980795        81.1116 
 655   0.0000       2.985082        81.2282 
 656   0.0000       2.987132        81.2840 
 657   0.0000       2.994812        81.4930 
 658   0.0000       3.000499        81.6477 
 659   0.0000       3.003429        81.7275 
 660   0.0000       3.011528        81.9479 
 661   0.0000       3.014862        82.0386 
 662   0.0000       3.020510        82.1923 
 663   0.0000       3.031645        82.4953 
 664   0.0000       3.035212        82.5923 
 665   0.0000       3.040877        82.7465 
 666   0.0000       3.045626        82.8757 
 667   0.0000       3.052204        83.0547 
 668   0.0000       3.053362        83.0862 
 669   0.0000       3.058660        83.2304 
 670   0.0000       3.059796        83.2613 
 671   0.0000       3.068029        83.4853 
 672   0.0000       3.073018        83.6211 
 673   0.0000       3.078460        83.7691 
 674   0.0000       3.084963        83.9461 
 675   0.0000       3.086520        83.9885 
 676   0.0000       3.097698        84.2927 
 677   0.0000       3.108193        84.5782 
 678   0.0000       3.115362        84.7733 
 679   0.0000       3.121704        84.9459 
 680   0.0000       3.127275        85.0975 
 681   0.0000       3.139021        85.4171 
 682   0.0000       3.141884        85.4950 
 683   0.0000       3.145219        85.5858 
 684   0.0000       3.148842        85.6843 
 685   0.0000       3.153109        85.8005 
 686   0.0000       3.162244        86.0490 
 687   0.0000       3.167489        86.1918 
 688   0.0000       3.171691        86.3061 
 689   0.0000       3.174295        86.3770 
 690   0.0000       3.177999        86.4778 
 691   0.0000       3.180490        86.5455 
 692   0.0000       3.189293        86.7851 
 693   0.0000       3.189886        86.8012 
 694   0.0000       3.198408        87.0331 
 695   0.0000       3.201468        87.1164 
 696   0.0000       3.208530        87.3085 
 697   0.0000       3.214532        87.4719 
 698   0.0000       3.215818        87.5069 
 699   0.0000       3.223114        87.7054 
 700   0.0000       3.225248        87.7635 
 701   0.0000       3.230127        87.8962 
 702   0.0000       3.235510        88.0427 
 703   0.0000       3.242745        88.2396 
 704   0.0000       3.245948        88.3267 
 705   0.0000       3.251910        88.4890 
 706   0.0000       3.257701        88.6465 
 707   0.0000       3.259284        88.6896 
 708   0.0000       3.263374        88.8009 
 709   0.0000       3.265882        88.8692 
 710   0.0000       3.275476        89.1302 
 711   0.0000       3.278702        89.2180 
 712   0.0000       3.286867        89.4402 
 713   0.0000       3.290312        89.5339 
 714   0.0000       3.295901        89.6860 
 715   0.0000       3.300790        89.8190 
 716   0.0000       3.303014        89.8796 
 717   0.0000       3.308574        90.0309 
 718   0.0000       3.313444        90.1634 
 719   0.0000       3.316913        90.2578 
[...]
  59   7.783     159.3   0.008521   0.007658  -9.094572  -9.365459     0.24 (  60->  76)    0.13 (  60->  74)    0.08 (  60->  72)
  60   7.816     158.6   0.026419   0.024665   5.050801   4.581495     0.15 (  66->  74)    0.07 (  60->  76)    0.05 (  66->  72)
  61   7.862     157.7   0.013629   0.013424  -40.711769  -42.074070     0.26 (  68->  78)    0.15 (  66->  75)    0.08 (  68->  79)
  62   7.910     156.7   0.013257   0.013041  27.902843  27.769230     0.13 (  71->  89)    0.11 (  70->  90)    0.10 (  71->  92)
  63   7.942     156.1   0.000073   0.000078  -0.838161  -0.320479     0.48 (  69->  87)    0.17 (  69->  86)    0.06 (  69->  85)
  64   7.957     155.8   0.006578   0.006533  -38.172116  -38.287336     0.12 (  61->  72)    0.09 (  62->  72)    0.04 (  64->  72)
  65   7.971     155.5   0.009329   0.008839   7.246953   6.211533     0.16 (  70->  89)    0.13 (  70->  90)    0.04 (  71->  92)
  66   7.983     155.3   0.003988   0.003550  12.652917  12.468110     0.06 (  69->  84)    0.06 (  58->  73)    0.05 (  70->  89)
  67   8.011     154.8   0.004496   0.004143   6.300810   7.374936     0.12 (  61->  72)    0.11 (  62->  72)    0.08 (  41->  72)
  68   8.017     154.6   0.028180   0.027561  -6.910525  -6.749489     0.17 (  67->  75)    0.09 (  69->  75)    0.04 (  66->  75)
  69   8.024     154.5   0.002537   0.002072  -4.503351  -5.798909     0.28 (  46->  72)    0.21 (  67->  77)    0.07 (  59->  72)
  70   8.059     153.8   0.009977   0.009033   0.660626   0.733476     0.46 (  70->  76)    0.07 (  70->  75)    0.06 (  71->  76)
  71   8.078     153.5   0.141378   0.123766  -9.061063  -10.865685     0.33 (  67->  77)    0.13 (  46->  72)    0.06 (  63->  77)
  72   8.106     152.9   0.028668   0.025768  -30.268223  -25.756054     0.13 (  68->  79)    0.07 (  46->  72)    0.07 (  67->  75)
  73   8.127     152.6   0.003734   0.003155  -4.276661  -3.183326     0.29 (  52->  73)    0.06 (  64->  72)    0.06 (  51->  73)
  74   8.145     152.2   0.013156   0.012204  14.773381  14.420169     0.18 (  64->  72)    0.06 (  52->  73)    0.06 (  47->  74)
  75   8.161     151.9   0.012656   0.011909  -9.546212  -9.473512     0.09 (  68->  80)    0.07 (  71->  94)    0.07 (  68->  89)
  76   8.173     151.7   0.019791   0.017091   7.842022   6.842156     0.11 (  67->  82)    0.07 (  67->  85)    0.05 (  52->  73)
  77   8.190     151.4   0.025267   0.023054  -0.384822  -0.697564     0.08 (  64->  75)    0.07 (  64->  72)    0.06 (  46->  72)
  78   8.227     150.7   0.007586   0.007467  -10.781856  -10.736207     0.23 (  64->  72)    0.10 (  62->  72)    0.09 (  61->  72)
  79   8.243     150.4   0.001401   0.001360  -2.949284  -2.746705     0.13 (  68->  80)    0.08 (  70->  82)    0.06 (  70->  85)
  80   8.274     149.8   0.013929   0.011517  -2.623216  -2.075587     0.83 (  60->  77)    0.03 (  60->  74)    0.02 (  60->  84)
  81   8.281     149.7   0.001133   0.001016   8.440666   7.686672     0.64 (  69->  88)    0.05 (  68->  88)    0.04 (  67->  88)
  82   8.306     149.3   0.057940   0.057147  13.776216  13.165948     0.16 (  64->  75)    0.07 (  58->  73)    0.04 (  59->  73)
  83   8.316     149.1   0.012743   0.012856  -4.949835  -5.420240     0.15 (  70->  89)    0.08 (  70->  92)    0.07 (  70->  90)
  84   8.346     148.6   0.005762   0.005619  -14.217713  -14.048001     0.15 (  53->  73)    0.09 (  55->  75)    0.07 (  59->  75)
  85   8.364     148.2   0.128050   0.129995  39.067495  38.555747     0.17 (  65->  73)    0.17 (  65->  74)    0.12 (  65->  76)
  86   8.377     148.0   0.037197   0.036736  -6.156322  -5.911014     0.12 (  59->  72)    0.10 (  71->  77)    0.07 (  58->  72)
  87   8.393     147.7   0.011017   0.010021  22.143131  21.685925     0.16 (  62->  76)    0.14 (  61->  76)    0.11 (  57->  76)
  88   8.412     147.4   0.006491   0.006493  -4.290612  -4.692160     0.73 (  71->  77)    0.05 (  67->  77)    0.01 (  70->  77)
  89   8.416     147.3   0.000407   0.000364   5.093788   4.710417     0.12 (  50->  72)    0.10 (  57->  76)    0.08 (  61->  76)
  90   8.434     147.0   0.020887   0.020299   3.895184   6.720484     0.15 (  71->  91)    0.08 (  71->  94)    0.06 (  71->  90)
  91   8.459     146.6   0.071607   0.071755  56.586957  56.833781     0.13 (  64->  74)    0.07 (  53->  73)    0.05 (  55->  75)
  92   8.485     146.1   0.005250   0.004269   5.898827   5.085041     0.12 (  70->  92)    0.06 (  68->  80)    0.05 (  70->  93)
  93   8.505     145.8   0.028604   0.029226  11.765134  11.869408     0.09 (  56->  73)    0.05 (  68->  80)    0.04 (  68->  89)
  94   8.531     145.3   0.005983   0.005202  -0.388071  -1.084976     0.15 (  64->  74)    0.05 (  66->  74)    0.05 (  68->  81)
  95   8.557     144.9   0.019703   0.017354  15.561411  14.748351     0.07 (  67->  79)    0.06 (  67->  81)    0.06 (  67->  87)
  96   8.578     144.5   0.106326   0.108119  -7.106871  -8.446585     0.19 (  69->  84)    0.13 (  63->  76)    0.10 (  65->  77)
  97   8.591     144.3   0.004206   0.004423   4.601868   4.888394     0.17 (  71->  97)    0.11 (  71->  98)    0.05 (  70->  92)
  98   8.608     144.0   0.003494   0.003326  -7.736269  -7.548696     0.84 (  57->  77)    0.02 (  57->  74)    0.01 (  39->  72)
  99   8.630     143.7   0.190934   0.175957  96.035542  90.241664     0.09 (  66->  79)    0.07 (  68->  76)    0.05 (  51->  73)
 100   8.673     142.9   0.178124   0.166060  -44.038435  -41.755132     0.16 (  66->  78)    0.12 (  68->  81)    0.07 (  51->  73)
 101   8.686     142.7   0.064010   0.062638  -8.950590  -7.052605     0.24 (  66->  79)    0.05 (  68->  76)    0.05 (  67->  87)
 102   8.709     142.4   0.009692   0.008639  -7.403789  -7.527431     0.16 (  59->  78)    0.08 (  68->  76)    0.06 (  58->  78)
 103   8.729     142.0   0.041569   0.036726  -14.646002  -12.257506     0.08 (  51->  73)    0.08 (  63->  77)    0.07 (  59->  78)
 104   8.756     141.6   0.006267   0.005841  -6.551468  -6.106515     0.72 (  70->  77)    0.03 (  71->  77)    0.02 (  68->  76)
 105   8.758     141.6   0.007860   0.007593  -4.736744  -4.020884     0.09 (  70->  77)    0.06 (  69->  75)    0.06 (  71-> 101)
 106   8.770     141.4   0.012176   0.011749   5.913174   6.024558     0.15 (  69->  93)    0.11 (  69->  92)    0.05 (  63->  77)
 107   8.781     141.2   0.003732   0.002959  -1.708297  -1.693800     0.09 (  69->  75)    0.08 (  70->  97)    0.08 (  70->  77)
 108   8.792     141.0   0.005769   0.004449   1.976345   1.661071     0.22 (  63->  77)    0.14 (  69->  75)    0.07 (  69->  84)
 109   8.803     140.8   0.007007   0.006799   7.153928   7.595358     0.08 (  70->  95)    0.08 (  71->  98)    0.05 (  68->  91)
 110   8.827     140.5   0.026423   0.024184  -10.812150  -12.719323     0.05 (  68->  81)    0.04 (  67->  75)    0.04 (  51->  73)
 111   8.870     139.8   0.009196   0.008961  19.383763  17.714547     0.09 (  66->  80)    0.07 (  71->  92)    0.04 (  68->  92)
 112   8.921     139.0   0.004785   0.004538   6.712032   5.283544     0.14 (  55->  75)    0.10 (  53->  75)    0.10 (  61->  75)
 113   8.959     138.4   0.016368   0.015968  -8.983987  -7.745110     0.10 (  66->  80)    0.05 (  71->  95)    0.04 (  64->  80)
 114   8.981     138.1   0.017783   0.017661  -8.574632  -8.182017     0.10 (  70->  97)    0.07 (  69->  96)    0.04 (  69->  82)
 115   8.998     137.8   0.012305   0.011096  -15.828832  -14.962877     0.24 (  61->  73)    0.15 (  62->  73)    0.07 (  61->  74)
 116   9.009     137.6   0.021931   0.019734  26.807639  25.545983     0.07 (  69->  96)    0.04 (  69->  82)    0.04 (  69->  93)
 117   9.023     137.4   0.021834   0.017967  -23.381022  -21.283851     0.09 (  54->  74)    0.07 (  54->  76)    0.06 (  63->  73)
 118   9.059     136.9   0.057236   0.053112  -17.342168  -16.135163     0.07 (  68->  81)    0.04 (  67->  84)    0.04 (  64->  79)
 119   9.105     136.2   0.000169   0.000208  -0.294800  -1.365581     0.11 (  39->  72)    0.08 (  47->  72)    0.07 (  60->  74)
 120   9.114     136.0   0.004287   0.003872   4.990472   4.928657     0.07 (  70->  95)    0.06 (  68->  82)    0.04 (  66->  80)
 121   9.136     135.7   0.004221   0.002751   3.289168   2.621554     0.14 (  67->  84)    0.08 (  65->  73)    0.06 (  63->  73)
 122   9.139     135.7   0.003551   0.002756  -4.025262  -3.241284     0.10 (  69->  95)    0.09 (  69->  96)    0.07 (  65->  83)
 123   9.154     135.4   0.021124   0.019212  -25.603247  -25.104101     0.06 (  71->  98)    0.05 (  70->  98)    0.05 (  62->  75)
 124   9.162     135.3   0.003398   0.002606   2.886194   2.975975     0.44 (  65->  83)    0.11 (  65->  82)    0.07 (  69->  93)
 125   9.174     135.1   0.009074   0.008086  -3.985266  -3.591335     0.10 (  59->  78)    0.09 (  52->  75)    0.05 (  59->  75)
 126   9.191     134.9   0.031621   0.027631  -0.431510  -1.060307     0.17 (  67->  84)    0.05 (  66->  80)    0.04 (  71->  98)
 127   9.206     134.7   0.016153   0.013527  38.965110  35.672602     0.17 (  70->  98)    0.11 (  70-> 101)    0.08 (  66->  80)
 128   9.245     134.1   0.000825   0.000662   3.158061   2.364948     0.07 (  55->  78)    0.05 (  64->  78)    0.04 (  55->  75)
 129   9.251     134.0   0.004055   0.003528  15.572577  14.554953     0.11 (  55->  78)    0.05 (  67->  90)    0.04 (  67->  92)
 130   9.265     133.8   0.001946   0.001677  -7.591422  -7.379013     0.07 (  49->  72)    0.07 (  39->  72)    0.05 (  60->  73)
 131   9.272     133.7   0.000662   0.000589  -2.081206  -1.818045     0.13 (  55->  78)    0.11 (  65->  73)    0.08 (  53->  75)
 132   9.283     133.6   0.001652   0.001272  -1.776549  -1.987130     0.18 (  65->  73)    0.10 (  65->  74)    0.07 (  63->  73)
 133   9.292     133.4   0.000373   0.000359   2.178265   1.947232     0.35 (  62->  77)    0.34 (  61->  77)    0.04 (  48->  77)
 134   9.324     133.0   0.017322   0.015030  -7.680542  -7.601892     0.07 (  67->  78)    0.06 (  67->  79)    0.04 (  69->  79)
 135   9.327     132.9   0.000311   0.000223  -4.131491  -3.838101     0.11 (  47->  72)    0.07 (  57->  74)    0.07 (  60->  73)
 136   9.340     132.7   0.001414   0.001033  -4.666418  -3.461905     0.06 (  67->  84)    0.04 (  70-> 101)    0.04 (  63->  73)
 137   9.359     132.5   0.001760   0.001469  -9.381495  -8.705628     0.18 (  52->  75)    0.05 (  58->  79)    0.04 (  69->  78)
 138   9.374     132.3   0.005299   0.005024  -30.092597  -29.212048     0.10 (  64->  79)    0.06 (  66->  81)    0.04 (  63->  73)
 139   9.412     131.7   0.028572   0.025016  14.655571  13.550105     0.08 (  51->  75)    0.07 (  64->  78)    0.07 (  56->  75)
 140   9.438     131.4   0.000789   0.000522   0.837766   0.652221     0.09 (  68->  77)    0.07 (  64->  79)    0.04 (  51->  75)
 141   9.446     131.3   0.012276   0.010706   5.502753   5.191394     0.18 (  69->  99)    0.08 (  69->  96)    0.08 (  69->  91)
 142   9.453     131.2   0.000327   0.000255  -1.220637  -1.133826     0.22 (  58->  72)    0.22 (  59->  72)    0.03 (  56->  72)
 143   9.460     131.1   0.005056   0.004639  -9.373548  -8.539222     0.53 (  68->  77)    0.05 (  67->  77)    0.05 (  54->  77)
 144   9.478     130.8   0.006733   0.005178  -3.413428  -3.530636     0.09 (  69->  78)    0.05 (  67->  89)    0.04 (  67->  91)
 145   9.502     130.5   0.023781   0.022982  -25.120548  -23.406918     0.04 (  58->  72)    0.04 (  39->  72)    0.04 (  59->  72)
 146   9.519     130.3   0.009197   0.007953  12.601231  12.435358     0.08 (  54->  77)    0.07 (  39->  72)    0.04 (  44->  73)
 147   9.530     130.1   0.009702   0.008748  14.014545  12.857362     0.18 (  54->  77)    0.05 (  70->  98)    0.04 (  70-> 100)
 148   9.533     130.1   0.009672   0.008878  -6.019859  -5.372422     0.30 (  54->  77)    0.09 (  68->  77)    0.04 (  70->  98)
 149   9.570     129.6   0.002053   0.001918  -0.544615  -1.211285     0.08 (  48->  74)    0.07 (  55->  74)    0.06 (  55->  72)
 150   9.573     129.5   0.008711   0.009299  -1.553152  -1.746589     0.41 (  65->  87)    0.10 (  65->  86)    0.05 (  63->  87)
 151   9.592     129.3   0.015862   0.014610   2.614665   2.161621     0.06 (  66->  76)    0.04 (  70-> 101)    0.03 (  61->  76)
 152   9.606     129.1   0.043948   0.044318   9.085494   8.345769     0.04 (  71->  84)    0.04 (  69->  94)    0.03 (  56->  72)
 153   9.610     129.0   0.002686   0.002488  10.258860   9.666061     0.07 (  61->  76)    0.06 (  66->  76)    0.05 (  62->  76)
 154   9.648     128.5   0.002770   0.002281   4.573802   4.399744     0.30 (  56->  72)    0.04 (  58->  72)    0.03 (  68->  86)
 155   9.666     128.3   0.071051   0.066241   7.581374   6.673961     0.14 (  69->  79)    0.10 (  69->  78)    0.05 (  67->  78)
 156   9.679     128.1   0.011010   0.011599  -29.121430  -28.408347     0.09 (  68->  86)    0.07 (  70-> 100)    0.06 (  64->  78)
 157   9.687     128.0   0.028117   0.023735  -27.404754  -24.062471     0.10 (  56->  72)    0.07 (  66->  81)    0.05 (  71-> 104)
 158   9.700     127.8   0.014068   0.013026  -6.110214  -6.198372     0.07 (  50->  76)    0.07 (  56->  72)    0.05 (  33->  72)
 159   9.729     127.4   0.032297   0.027812   9.139789   9.369690     0.09 (  71-> 101)    0.05 (  71-> 103)    0.03 (  64->  79)
 160   9.756     127.1   0.001642   0.001875   2.936693   2.607650     0.26 (  55->  72)    0.07 (  44->  73)    0.05 (  45->  73)
 161   9.767     126.9   0.004144   0.003485   1.759415   1.818223     0.08 (  64->  79)    0.06 (  66->  81)    0.05 (  66->  76)
 162   9.777     126.8   0.000810   0.000780  -3.183038  -2.890928     0.24 (  55->  72)    0.06 (  71-> 101)    0.06 (  71-> 100)
 163   9.783     126.7   0.013686   0.012998  -15.476643  -14.600773     0.20 (  55->  72)    0.05 (  71-> 101)    0.03 (  71-> 109)
 164   9.794     126.6   0.002677   0.001649   7.161442   6.693338     0.09 (  69-> 102)    0.06 (  69->  99)    0.06 (  69-> 100)
 165   9.808     126.4   0.013594   0.013129  21.786202  21.872406     0.04 (  66->  76)    0.03 (  45->  73)    0.03 (  58->  74)
 166   9.835     126.1   0.005221   0.004884  -11.179911  -11.313111     0.51 (  65->  88)    0.02 (  65->  93)    0.02 (  67->  88)
 167   9.837     126.0   0.022600   0.023011  50.656813  50.870854     0.07 (  65->  88)    0.04 (  62->  75)    0.03 (  51->  75)
 168   9.842     126.0   0.013476   0.012252  12.264820  11.359557     0.15 (  54->  76)    0.09 (  54->  73)    0.07 (  46->  74)
 169   9.848     125.9   0.003831   0.003559  -5.190156  -4.980514     0.06 (  66->  76)    0.04 (  56->  79)    0.03 (  66->  81)
 170   9.868     125.6   0.037108   0.033483  -0.613061   0.755048     0.07 (  67->  79)    0.06 (  69->  81)    0.06 (  66->  81)
 171   9.877     125.5   0.004146   0.003740  -7.735287  -7.704382     0.06 (  48->  74)    0.05 (  47->  74)    0.05 (  60->  73)
 172   9.905     125.2   0.003627   0.003088  -5.914879  -5.552905     0.06 (  59->  74)    0.06 (  58->  74)    0.03 (  52->  74)
 173   9.929     124.9   0.028917   0.026590  -38.839226  -36.757115     0.06 (  70-> 100)    0.06 (  56->  78)    0.05 (  70-> 103)
 174   9.941     124.7   0.016473   0.014380  35.514528  33.123340     0.06 (  62->  82)    0.04 (  62->  85)    0.03 (  51->  75)
 175   9.968     124.4   0.012759   0.012593  -4.500643  -5.121391     0.12 (  71->  84)    0.03 (  63->  84)    0.03 (  66->  85)
 176   9.981     124.2   0.019365   0.018570  -24.652837  -24.219575     0.08 (  67->  83)    0.07 (  67->  95)    0.05 (  65->  88)
 177   9.985     124.2   0.002607   0.002623  -16.447508  -15.861003     0.04 (  65->  84)    0.03 (  63->  84)    0.02 (  71-> 103)

sTD-DFT done

Total run time:       23.804 sec

           *** ORCA-CIS/TD-DFT FINISHED WITHOUT ERROR ***


-------------------------------------------------------------------------------
                          DFT DISPERSION CORRECTION                            
                                                                               
                              DFTD3 V3.1  Rev 1                                
                              USING zero damping                               
-------------------------------------------------------------------------------
The omegaB97X-D3 functional is recognized. Fit by Chai et al.
Active option DFTDOPT                   ...         3   

molecular C6(AA) [au] = 29802.340281 


            DFT-D V3
 parameters
 s6 scaling factor         :     1.0000 
 rs6 scaling factor        :     1.2810 
 s8 scaling factor         :     1.0000 
 rs8 scaling factor        :     1.0940 
 Damping factor alpha6     :    14.0000 
 Damping factor alpha8     :    16.0000 
 ad hoc parameters k1-k3   :    16.0000     1.3333    -4.0000 

 Edisp/kcal,au: -12.185336532594  -0.019418567745 
 E6   /kcal   :  -5.699771657 
 E8   /kcal   :  -6.485564875 
 % E8         :  53.224339419 

-------------------------   ----------------
Dispersion correction           -0.019418568
-------------------------   ----------------


-------------------------   --------------------
FINAL SINGLE POINT ENERGY     -1421.746604707985
-------------------------   --------------------


                            ***************************************
                            *     ORCA property calculations      *
                            ***************************************

                                    ---------------------
                                    Active property flags
                                    ---------------------
   (+) Dipole Moment
   (+) Quadrupole Moment


------------------------------------------------------------------------------
                       ORCA ELECTRIC PROPERTIES CALCULATION
------------------------------------------------------------------------------

Dipole Moment Calculation                       ... on
Quadrupole Moment Calculation                   ... on
Polarizability Calculation                      ... off
GBWName                                         ... total_job2.gbw
Electron density file                           ... total_job2.scfp.tmp

-------------
DIPOLE MOMENT
-------------
                                X             Y             Z
Electronic contribution:     16.10041       0.55369      -1.00615
Nuclear contribution   :    -16.86609      -1.00936       0.20736
                        -----------------------------------------
Total Dipole Moment    :     -0.76568      -0.45567      -0.79880
                        -----------------------------------------
Magnitude (a.u.)       :      1.19665
Magnitude (Debye)      :      3.04164


------------------------
QUADRUPOLE MOMENT (A.U.)
------------------------

                XX           YY           ZZ           XY           XZ           YZ
  NUC     19334.88024    427.56649   2287.60365   -880.62421    289.12984    511.52545
  EL     -19424.46257   -571.17578  -2418.30093    888.56139   -268.94919   -515.53595
  TOT       -89.58233   -143.60930   -130.69727      7.93718     20.18065     -4.01050

--------------------------------------------------------------------------
[[23284,1],3]: A high-performance Open MPI point-to-point messaging module
was unable to find any relevant network interfaces:

Module: OpenFabrics (openib)
  Host: cx1-103-2-3

Another transport will be used instead, although this may result in
lower performance.
--------------------------------------------------------------------------

Timings for individual modules:

Sum of individual times         ...      161.298 sec (=   2.688 min)
GTO integral calculation        ...        4.929 sec (=   0.082 min)   3.1 %
SCF iterations                  ...      131.670 sec (=   2.194 min)  81.6 %
CIS module                      ...       24.699 sec (=   0.412 min)  15.3 %



                             ****ORCA TERMINATED NORMALLY****
TOTAL RUN TIME: 0 days 0 hours 8 minutes 50 seconds 930 msec
