
                                 *****************
                                 * O   R   C   A *
                                 *****************

           --- An Ab Initio, DFT and Semiempirical electronic structure package ---

                  #######################################################
                  #                        -***-                        #
                  #  Department of molecular theory and spectroscopy    #
                  #              Directorship: Frank Neese              #
                  # Max Planck Institute for Chemical Energy Conversion #
                  #                  D-45470 Muelheim/Ruhr              #
                  #                       Germany                       #
                  #                                                     #
                  #                  All rights reserved                #
                  #                        -***-                        #
                  #######################################################


                         Program Version 4.0.0 -  RELEASE  -


 With contributions from (in alphabetic order):
   Daniel Aravena         : Magnetic Properties
   Michael Atanasov       : Ab Initio Ligand Field Theory
   Ute Becker             : Parallelization
   Martin Brehm           : Molecular dynamics
   Dmytro Bykov           : SCF Hessian
   Vijay G. Chilkuri      : MRCI spin determinant printing
   Dipayan Datta          : RHF DLPNO-CCSD density
   Achintya Kumar Dutta   : EOM-CC, STEOM-CC
   Dmitry Ganyushin       : Spin-Orbit,Spin-Spin,Magnetic field MRCI
   Yang Guo               : DLPNO-NEVPT2, CIM, IAO-localization
   Andreas Hansen         : Spin unrestricted coupled pair/coupled cluster methods
   Lee Huntington         : MR-EOM, pCC
   Robert Izsak           : Overlap fitted RIJCOSX, COSX-SCS-MP3, EOM
   Christian Kollmar      : KDIIS, OOCD, Brueckner-CCSD(T), CCSD density
   Simone Kossmann        : Meta GGA functionals, TD-DFT gradient, OOMP2, MP2 Hessian
   Martin Krupicka        : AUTO-CI
   Dagmar Lenk            : GEPOL surface
   Dimitrios Liakos       : Extrapolation schemes; parallel MDCI
   Dimitrios Manganas     : ROCIS; embedding schemes
   Dimitrios Pantazis     : SARC Basis sets
   Taras Petrenko         : DFT Hessian,TD-DFT gradient, ASA, ECA, R-Raman, ABS, FL, XAS/XES, NRVS
   Peter Pinski           : DLPNO-MP2
   Christoph Reimann      : Effective Core Potentials
   Marius Retegan         : Local ZFS, SOC
   Christoph Riplinger    : Optimizer, TS searches, QM/MM, DLPNO-CCSD(T), (RO)-DLPNO pert. Triples
   Tobias Risthaus        : Range-separated hybrids, TD-DFT gradient, RPA, STAB
   Michael Roemelt        : Restricted open shell CIS
   Masaaki Saitow         : Open-shell DLPNO
   Barbara Sandhoefer     : DKH picture change effects
   Kantharuban Sivalingam : CASSCF convergence, NEVPT2, FIC-MRCI
   Georgi Stoychev        : AutoAux
   Boris Wezisla          : Elementary symmetry handling
   Frank Wennmohs         : Technical directorship


 We gratefully acknowledge several colleagues who have allowed us to
 interface, adapt or use parts of their codes:
   Stefan Grimme, W. Hujo, H. Kruse,             : VdW corrections, initial TS optimization,
                  C. Bannwarth                     DFT functionals, gCP, sTDA/sTD-DF
   Ed Valeev                                     : LibInt (2-el integral package), F12 methods
   Garnet Chan, S. Sharma, J. Yang, R. Olivares  : DMRG
   Ulf Ekstrom                                   : XCFun DFT Library
   Mihaly Kallay                                 : mrcc  (arbitrary order and MRCC methods)
   Jiri Pittner, Ondrej Demel                    : Mk-CCSD
   Frank Weinhold                                : gennbo (NPA and NBO analysis)
   Christopher J. Cramer and Donald G. Truhlar   : smd solvation model


 Your calculation uses the libint2 library for the computation of 2-el integrals
 For citations please refer to: http://libint.valeyev.net

 This ORCA versions uses:
   CBLAS   interface :  Fast vector & matrix operations
   LAPACKE interface :  Fast linear algebra routines
   SCALAPACK package :  Parallel linear algebra routines


Your calculation utilizes the atom-pairwise dispersion correction
with the zero-damping scheme (D30)
Cite in your paper:
S.Grimme, J.Antony, S.Ehrlich and H.Krieg, J.Chem.Phys., 132, (2010), 154104 
   

XCFun DFT library Copyright 2009-2010 Ulf Ekstrom and contributors.
See http://admol.org/xcfun for more information. This is free soft-
ware; see the source code for copying conditions. There is ABSOLUTELY
NO WARRANTY; not even for MERCHANTABILITY or FITNESS FOR A PARTICULAR
PURPOSE. For details see the documentation. Scientific users of this 
library should cite U. Ekstrom, L. Visscher, R. Bast, A. J. Thorvald-
sen and K. Ruud; J.Chem.Theor.Comp. 2010, DOI: 10.1021/ct100117s
XCFun Version 0.99 
Your calculation utilizes the basis: def2-TZVP
   F. Weigend and R. Ahlrichs, Phys. Chem. Chem. Phys. 7, 3297 (2005).

Your calculation utilizes the auxiliary basis: def2/J
   F. Weigend, Phys. Chem. Chem. Phys. 8, 1057 (2006).

================================================================================
                                        WARNINGS
                       Please study these warnings very carefully!
================================================================================

Warning: TCutStore was < 0. Adjusted to Thresh (uncritical)
INFO   : Checking CIS options ...

WARNING: CIS/ROCIS methods need fully converged wavefunctions
  ===> : Setting SCFConvForced true
         You can overwrite this default with %scf ConvForced false 


INFO   : the flag for use of LIBINT has been found!

Your calculation utilizes the atom-pairwise dispersion correction
with the zero-damping scheme (D30)
Cite in your paper:
S.Grimme, J.Antony, S.Ehrlich and H.Krieg, J.Chem.Phys., 132, (2010), 154104 
   

XCFun DFT library Copyright 2009-2010 Ulf Ekstrom and contributors.
See http://admol.org/xcfun for more information. This is free soft-
ware; see the source code for copying conditions. There is ABSOLUTELY
NO WARRANTY; not even for MERCHANTABILITY or FITNESS FOR A PARTICULAR
PURPOSE. For details see the documentation. Scientific users of this 
library should cite U. Ekstrom, L. Visscher, R. Bast, A. J. Thorvald-
sen and K. Ruud; J.Chem.Theor.Comp. 2010, DOI: 10.1021/ct100117s
XCFun Version 0.99 
Your calculation utilizes the basis: def2-TZVP
   F. Weigend and R. Ahlrichs, Phys. Chem. Chem. Phys. 7, 3297 (2005).

Your calculation utilizes the auxiliary basis: def2/J
   F. Weigend, Phys. Chem. Chem. Phys. 8, 1057 (2006).

================================================================================
                                        WARNINGS
                       Please study these warnings very carefully!
================================================================================

INFO   : Checking CIS options ...

INFO   : the flag for use of LIBINT has been found!

================================================================================
                                       INPUT FILE
================================================================================
NAME = total.inp
|  1> # 
|  2> !wB97X-D3 def2-TZVP def2/J RIJCOSX Grid5 FinalGrid6 TightSCF
|  3> %pal 
|  4>  nprocs 24
|  5> end
|  6> %tddft
|  7>   Mode sTDDFT
|  8>   nroots 2
|  9>   Ethresh 10.0
| 10>   maxcore 5000
| 11>   triplets true
| 12> end
| 13> * xyz 0 1 
| 14> C 7.99222411 1.49736509 1.82479769
| 15> C 7.37330526 0.55765789 1.00316640
| 16> C 8.16813097 -0.27719565 0.19678620
| 17> C 9.58391545 -0.15997904 0.28796978
| 18> C 10.21017786 0.78856044 1.11070376
| 19> C 9.39181139 1.62061706 1.87150566
| 20> C 7.90162861 -1.36324119 -0.73290066
| 21> C 9.17447862 -1.87193270 -1.12086480
| 22> N 10.16850663 -1.12039342 -0.51920460
| 23> C 9.32648297 -2.98265275 -1.96503765
| 24> C 8.16357134 -3.60255213 -2.41784864
| 25> C 6.89801825 -3.10977680 -2.06992526
| 26> C 6.73166816 -1.97773165 -1.25002888
| 27> H 6.01442550 -3.59816638 -2.47236829
| 28> H 11.16355703 -1.28081057 -0.61627402
| 29> H 8.23490718 -4.47230246 -3.06525123
| 30> H 6.29075781 0.47062665 1.00684315
| 31> H 11.29326928 0.86351259 1.15972040
| 32> H 9.84135465 2.36626625 2.52186294
| 33> H 7.38251305 2.14581046 2.44803206
| 34> N 0.79983795 0.23641344 -0.61981863
| 35> C 2.09257543 0.67752881 -0.86830932
| 36> C 2.21333693 2.03878415 -1.08926429
| 37> S 0.65239578 2.80960217 -0.98766009
| 38> C -0.09120228 1.21012492 -0.63842015
| 39> C 3.18344570 -0.28665247 -0.89110957
| 40> S 4.87324071 0.19521098 -1.17586367
| 41> C 5.36231487 -1.49216951 -1.01594809
| 42> C 4.23724822 -2.26315185 -0.79418277
| 43> N 3.03848296 -1.59115790 -0.70901979
| 44> H 3.12282455 2.58570071 -1.30415401
| 45> H 4.25758698 -3.34260089 -0.65500742
| 46> C -4.16128150 -1.34094749 0.86159702
| 47> C -5.54125503 -1.37481643 1.05978563
| 48> C -6.34578489 -0.26800534 0.73457680
| 49> C -5.77865666 0.89096372 0.20711001
| 50> C -4.36451260 0.95849504 -0.01225639
| 51> C -3.54076331 -0.16641913 0.31310224
| 52> C -3.74818287 2.14069895 -0.54919123
| 53> C -2.37601035 2.18065146 -0.73814652
| 54> C -1.53192611 1.07556735 -0.42424801
| 55> C -2.11821500 -0.10075771 0.09707023
| 56> N -1.31147113 -1.14061606 0.58203883
| 57> C -0.68484668 -2.00776261 -0.14062666
| 58> C 0.25836219 -2.97931767 0.51391974
| 59> N -4.52789901 3.30475716 -0.74804528
| 60> C -4.58843702 3.93441951 -1.87487034
| 61> C -5.39526392 5.20688788 -1.95930394
| 62> N -6.60720626 1.94594307 -0.24138284
| 63> C -7.42817764 2.58204469 0.52720888
| 64> C -8.31764901 3.64451447 -0.07037260
| 65> N -3.40799523 -2.51878713 1.07093049
| 66> C -3.29258162 -3.09408117 2.22156313
| 67> C -2.53588708 -4.39525768 2.32135087
| 68> C -3.83829440 -2.53388534 3.52059896
| 69> C -0.83154882 -2.11808431 -1.64257486
| 70> C -3.93310853 3.47128785 -3.16202390
| 71> C -7.54624473 2.37467346 2.02511939
| 72> H -6.00069839 -2.27898557 1.44887846
| 73> H -1.92538932 3.09417022 -1.11934820
| 74> H 0.13532088 -1.97560934 -2.12351726
| 75> H -1.19273185 -3.10904309 -1.91738692
| 76> H -1.52580476 -1.37411889 -2.02440582
| 77> H 0.17738882 -2.94001537 1.59658032
| 78> H 0.06877133 -3.99886245 0.17971209
| 79> H 1.28460727 -2.72392285 0.23065448
| 80> H -4.13332301 -1.49422492 3.40770665
| 81> H -4.70977881 -3.10303765 3.84584104
| 82> H -3.09227827 -2.60724014 4.31029693
| 83> H -3.15451364 -5.16877139 2.77656189
| 84> H -1.65538820 -4.27788698 2.95362150
| 85> H -2.21306304 -4.73728521 1.34231549
| 86> H -8.08008342 4.62247934 0.34981791
| 87> H -9.36544542 3.44659563 0.15599674
| 88> H -8.19657893 3.69555229 -1.14856771
| 89> H -7.61438484 3.33263903 2.53820279
| 90> H -6.69453914 1.82387546 2.41522520
| 91> H -8.45153734 1.81552226 2.26428324
| 92> H -3.64705768 2.42439130 -3.10498649
| 93> H -4.60863106 3.60944909 -4.00466952
| 94> H -3.03636069 4.05687539 -3.36770703
| 95> H -6.22836708 5.08637679 -2.65268970
| 96> H -5.79435285 5.48276381 -0.98744791
| 97> H -4.78545553 6.02906414 -2.33408689
| 98> H 10.31014162 -3.34968761 -2.24375280
| 99> H -7.42192133 -0.32494404 0.87191573
|100> *
|101> $new_job
|102> # 
|103> !wB97X-D3 def2-TZVP def2/J RIJCOSX Grid5 FinalGrid6 TightSCF
|104> %pal 
|105>  nprocs 24
|106> end
|107> %elprop
|108>    dipole     true
|109>    quadrupole true
|110> end
|111> %tddft
|112>   Mode sTDDFT
|113>   nroots 2
|114>   Ethresh 10.0
|115>   maxcore 5000
|116> end
|117> * xyz 0 1 
|118> C 7.99222411 1.49736509 1.82479769
|119> C 7.37330526 0.55765789 1.00316640
|120> C 8.16813097 -0.27719565 0.19678620
|121> C 9.58391545 -0.15997904 0.28796978
|122> C 10.21017786 0.78856044 1.11070376
|123> C 9.39181139 1.62061706 1.87150566
|124> C 7.90162861 -1.36324119 -0.73290066
|125> C 9.17447862 -1.87193270 -1.12086480
|126> N 10.16850663 -1.12039342 -0.51920460
|127> C 9.32648297 -2.98265275 -1.96503765
|128> C 8.16357134 -3.60255213 -2.41784864
|129> C 6.89801825 -3.10977680 -2.06992526
|130> C 6.73166816 -1.97773165 -1.25002888
|131> H 6.01442550 -3.59816638 -2.47236829
|132> H 11.16355703 -1.28081057 -0.61627402
|133> H 8.23490718 -4.47230246 -3.06525123
|134> H 6.29075781 0.47062665 1.00684315
|135> H 11.29326928 0.86351259 1.15972040
|136> H 9.84135465 2.36626625 2.52186294
|137> H 7.38251305 2.14581046 2.44803206
|138> N 0.79983795 0.23641344 -0.61981863
|139> C 2.09257543 0.67752881 -0.86830932
|140> C 2.21333693 2.03878415 -1.08926429
|141> S 0.65239578 2.80960217 -0.98766009
|142> C -0.09120228 1.21012492 -0.63842015
|143> C 3.18344570 -0.28665247 -0.89110957
|144> S 4.87324071 0.19521098 -1.17586367
|145> C 5.36231487 -1.49216951 -1.01594809
|146> C 4.23724822 -2.26315185 -0.79418277
|147> N 3.03848296 -1.59115790 -0.70901979
|148> H 3.12282455 2.58570071 -1.30415401
|149> H 4.25758698 -3.34260089 -0.65500742
|150> C -4.16128150 -1.34094749 0.86159702
|151> C -5.54125503 -1.37481643 1.05978563
|152> C -6.34578489 -0.26800534 0.73457680
|153> C -5.77865666 0.89096372 0.20711001
|154> C -4.36451260 0.95849504 -0.01225639
|155> C -3.54076331 -0.16641913 0.31310224
|156> C -3.74818287 2.14069895 -0.54919123
|157> C -2.37601035 2.18065146 -0.73814652
|158> C -1.53192611 1.07556735 -0.42424801
|159> C -2.11821500 -0.10075771 0.09707023
|160> N -1.31147113 -1.14061606 0.58203883
|161> C -0.68484668 -2.00776261 -0.14062666
|162> C 0.25836219 -2.97931767 0.51391974
|163> N -4.52789901 3.30475716 -0.74804528
|164> C -4.58843702 3.93441951 -1.87487034
|165> C -5.39526392 5.20688788 -1.95930394
|166> N -6.60720626 1.94594307 -0.24138284
|167> C -7.42817764 2.58204469 0.52720888
|168> C -8.31764901 3.64451447 -0.07037260
|169> N -3.40799523 -2.51878713 1.07093049
|170> C -3.29258162 -3.09408117 2.22156313
|171> C -2.53588708 -4.39525768 2.32135087
|172> C -3.83829440 -2.53388534 3.52059896
|173> C -0.83154882 -2.11808431 -1.64257486
|174> C -3.93310853 3.47128785 -3.16202390
|175> C -7.54624473 2.37467346 2.02511939
|176> H -6.00069839 -2.27898557 1.44887846
|177> H -1.92538932 3.09417022 -1.11934820
|178> H 0.13532088 -1.97560934 -2.12351726
|179> H -1.19273185 -3.10904309 -1.91738692
|180> H -1.52580476 -1.37411889 -2.02440582
|181> H 0.17738882 -2.94001537 1.59658032
|182> H 0.06877133 -3.99886245 0.17971209
|183> H 1.28460727 -2.72392285 0.23065448
|184> H -4.13332301 -1.49422492 3.40770665
|185> H -4.70977881 -3.10303765 3.84584104
|186> H -3.09227827 -2.60724014 4.31029693
|187> H -3.15451364 -5.16877139 2.77656189
|188> H -1.65538820 -4.27788698 2.95362150
|189> H -2.21306304 -4.73728521 1.34231549
|190> H -8.08008342 4.62247934 0.34981791
|191> H -9.36544542 3.44659563 0.15599674
|192> H -8.19657893 3.69555229 -1.14856771
|193> H -7.61438484 3.33263903 2.53820279
|194> H -6.69453914 1.82387546 2.41522520
|195> H -8.45153734 1.81552226 2.26428324
|196> H -3.64705768 2.42439130 -3.10498649
|197> H -4.60863106 3.60944909 -4.00466952
|198> H -3.03636069 4.05687539 -3.36770703
|199> H -6.22836708 5.08637679 -2.65268970
|200> H -5.79435285 5.48276381 -0.98744791
|201> H -4.78545553 6.02906414 -2.33408689
|202> H 10.31014162 -3.34968761 -2.24375280
|203> H -7.42192133 -0.32494404 0.87191573
|204> *
|205> 
|206>                          ****END OF INPUT****
================================================================================


                 $$$$$$$$$$$$$$$$$$$$$$$$$$$$$$$$$$$$$$$$$$$$$$ 
                 $ THERE ARE  2 JOBS TO BE PROCESSED THIS RUN $
                 $$$$$$$$$$$$$$$$$$$$$$$$$$$$$$$$$$$$$$$$$$$$$$ 




                 $$$$$$$$$$$$$$$$  JOB NUMBER  1 $$$$$$$$$$$$$$


                       ****************************
                       * Single Point Calculation *
                       ****************************

---------------------------------
CARTESIAN COORDINATES (ANGSTROEM)
---------------------------------
  C      7.992224    1.497365    1.824798
  C      7.373305    0.557658    1.003166
  C      8.168131   -0.277196    0.196786
  C      9.583915   -0.159979    0.287970
  C     10.210178    0.788560    1.110704
  C      9.391811    1.620617    1.871506
  C      7.901629   -1.363241   -0.732901
  C      9.174479   -1.871933   -1.120865
  N     10.168507   -1.120393   -0.519205
  C      9.326483   -2.982653   -1.965038
  C      8.163571   -3.602552   -2.417849
  C      6.898018   -3.109777   -2.069925
  C      6.731668   -1.977732   -1.250029
  H      6.014425   -3.598166   -2.472368
  H     11.163557   -1.280811   -0.616274
  H      8.234907   -4.472302   -3.065251
  H      6.290758    0.470627    1.006843
  H     11.293269    0.863513    1.159720
  H      9.841355    2.366266    2.521863
  H      7.382513    2.145810    2.448032
  N      0.799838    0.236413   -0.619819
  C      2.092575    0.677529   -0.868309
  C      2.213337    2.038784   -1.089264
  S      0.652396    2.809602   -0.987660
  C     -0.091202    1.210125   -0.638420
  C      3.183446   -0.286652   -0.891110
  S      4.873241    0.195211   -1.175864
  C      5.362315   -1.492170   -1.015948
  C      4.237248   -2.263152   -0.794183
  N      3.038483   -1.591158   -0.709020
  H      3.122825    2.585701   -1.304154
  H      4.257587   -3.342601   -0.655007
  C     -4.161282   -1.340947    0.861597
  C     -5.541255   -1.374816    1.059786
  C     -6.345785   -0.268005    0.734577
  C     -5.778657    0.890964    0.207110
  C     -4.364513    0.958495   -0.012256
  C     -3.540763   -0.166419    0.313102
  C     -3.748183    2.140699   -0.549191
  C     -2.376010    2.180651   -0.738147
  C     -1.531926    1.075567   -0.424248
  C     -2.118215   -0.100758    0.097070
  N     -1.311471   -1.140616    0.582039
  C     -0.684847   -2.007763   -0.140627
  C      0.258362   -2.979318    0.513920
  N     -4.527899    3.304757   -0.748045
  C     -4.588437    3.934420   -1.874870
  C     -5.395264    5.206888   -1.959304
  N     -6.607206    1.945943   -0.241383
  C     -7.428178    2.582045    0.527209
  C     -8.317649    3.644514   -0.070373
  N     -3.407995   -2.518787    1.070930
  C     -3.292582   -3.094081    2.221563
  C     -2.535887   -4.395258    2.321351
  C     -3.838294   -2.533885    3.520599
  C     -0.831549   -2.118084   -1.642575
  C     -3.933109    3.471288   -3.162024
  C     -7.546245    2.374673    2.025119
  H     -6.000698   -2.278986    1.448878
  H     -1.925389    3.094170   -1.119348
  H      0.135321   -1.975609   -2.123517
  H     -1.192732   -3.109043   -1.917387
  H     -1.525805   -1.374119   -2.024406
  H      0.177389   -2.940015    1.596580
  H      0.068771   -3.998862    0.179712
  H      1.284607   -2.723923    0.230654
  H     -4.133323   -1.494225    3.407707
  H     -4.709779   -3.103038    3.845841
  H     -3.092278   -2.607240    4.310297
  H     -3.154514   -5.168771    2.776562
  H     -1.655388   -4.277887    2.953622
  H     -2.213063   -4.737285    1.342315
  H     -8.080083    4.622479    0.349818
  H     -9.365445    3.446596    0.155997
  H     -8.196579    3.695552   -1.148568
  H     -7.614385    3.332639    2.538203
  H     -6.694539    1.823875    2.415225
  H     -8.451537    1.815522    2.264283
  H     -3.647058    2.424391   -3.104986
  H     -4.608631    3.609449   -4.004670
  H     -3.036361    4.056875   -3.367707
  H     -6.228367    5.086377   -2.652690
  H     -5.794353    5.482764   -0.987448
  H     -4.785456    6.029064   -2.334087
  H     10.310142   -3.349688   -2.243753
  H     -7.421921   -0.324944    0.871916

----------------------------
CARTESIAN COORDINATES (A.U.)
----------------------------
  NO LB      ZA    FRAG     MASS         X           Y           Z
   0 C     6.0000    0    12.011   15.103115    2.829610    3.448368
   1 C     6.0000    0    12.011   13.933528    1.053821    1.895710
   2 C     6.0000    0    12.011   15.435531   -0.523824    0.371872
   3 C     6.0000    0    12.011   18.110975   -0.302317    0.544184
   4 C     6.0000    0    12.011   19.294440    1.490163    2.098926
   5 C     6.0000    0    12.011   17.747951    3.062522    3.536633
   6 C     6.0000    0    12.011   14.931914   -2.576153   -1.384982
   7 C     6.0000    0    12.011   17.337252   -3.537440   -2.118128
   8 N     7.0000    0    14.007   19.215693   -2.117237   -0.981155
   9 C     6.0000    0    12.011   17.624499   -5.636397   -3.713383
  10 C     6.0000    0    12.011   15.426914   -6.807837   -4.569072
  11 C     6.0000    0    12.011   13.035365   -5.876626   -3.911592
  12 C     6.0000    0    12.011   12.721009   -3.737371   -2.362212
  13 H     1.0000    0     1.008   11.365617   -6.799549   -4.672099
  14 H     1.0000    0     1.008   21.096065   -2.420381   -1.164589
  15 H     1.0000    0     1.008   15.561719   -8.451427   -5.792485
  16 H     1.0000    0     1.008   11.887809    0.889355    1.902658
  17 H     1.0000    0     1.008   21.341186    1.631802    2.191554
  18 H     1.0000    0     1.008   18.597465    4.471595    4.765630
  19 H     1.0000    0     1.008   13.950928    4.054994    4.626110
  20 N     7.0000    0    14.007    1.511475    0.446757   -1.171287
  21 C     6.0000    0    12.011    3.954394    1.280344   -1.640867
  22 C     6.0000    0    12.011    4.182601    3.852744   -2.058411
  23 S    16.0000    0    32.060    1.232849    5.309379   -1.866407
  24 C     6.0000    0    12.011   -0.172347    2.286805   -1.206439
  25 C     6.0000    0    12.011    6.015841   -0.541695   -1.683953
  26 S    16.0000    0    32.060    9.209090    0.368895   -2.222060
  27 C     6.0000    0    12.011   10.133307   -2.819792   -1.919864
  28 C     6.0000    0    12.011    8.007239   -4.276737   -1.500788
  29 N     7.0000    0    14.007    5.741901   -3.006853   -1.339853
  30 H     1.0000    0     1.008    5.901283    4.886266   -2.464494
  31 H     1.0000    0     1.008    8.045673   -6.316600   -1.237785
  32 C     6.0000    0    12.011   -7.863682   -2.534024    1.628182
  33 C     6.0000    0    12.011  -10.471454   -2.598027    2.002705
  34 C     6.0000    0    12.011  -11.991796   -0.506457    1.388149
  35 C     6.0000    0    12.011  -10.920079    1.683677    0.391381
  36 C     6.0000    0    12.011   -8.247734    1.811293   -0.023161
  37 C     6.0000    0    12.011   -6.691073   -0.314487    0.591677
  38 C     6.0000    0    12.011   -7.083039    4.045335   -1.037821
  39 C     6.0000    0    12.011   -4.490009    4.120834   -1.394895
  40 C     6.0000    0    12.011   -2.894921    2.032528   -0.801713
  41 C     6.0000    0    12.011   -4.002846   -0.190404    0.183436
  42 N     7.0000    0    14.007   -2.478321   -2.155452    1.099894
  43 C     6.0000    0    12.011   -1.294173   -3.794121   -0.265746
  44 C     6.0000    0    12.011    0.488234   -5.630094    0.971168
  45 N     7.0000    0    14.007   -8.556489    6.245086   -1.413601
  46 C     6.0000    0    12.011   -8.670889    7.434975   -3.542991
  47 C     6.0000    0    12.011  -10.195571    9.839592   -3.702548
  48 N     7.0000    0    14.007  -12.485810    3.677299   -0.456147
  49 C     6.0000    0    12.011  -14.037221    4.879357    0.996280
  50 C     6.0000    0    12.011  -15.718079    6.887134   -0.132985
  51 N     7.0000    0    14.007   -6.440178   -4.759818    2.023765
  52 C     6.0000    0    12.011   -6.222078   -5.846966    4.198146
  53 C     6.0000    0    12.011   -4.792132   -8.305833    4.386717
  54 C     6.0000    0    12.011   -7.253325   -4.788349    6.652968
  55 C     6.0000    0    12.011   -1.571400   -4.002599   -3.104017
  56 C     6.0000    0    12.011   -7.432498    6.559783   -5.975359
  57 C     6.0000    0    12.011  -14.260336    4.487482    3.826921
  58 H     1.0000    0     1.008  -11.339677   -4.306659    2.737983
  59 H     1.0000    0     1.008   -3.638459    5.847134   -2.115262
  60 H     1.0000    0     1.008    0.255719   -3.733361   -4.012866
  61 H     1.0000    0     1.008   -2.253937   -5.875240   -3.623336
  62 H     1.0000    0     1.008   -2.883353   -2.596708   -3.825573
  63 H     1.0000    0     1.008    0.335216   -5.555824    3.017100
  64 H     1.0000    0     1.008    0.129959   -7.556755    0.339607
  65 H     1.0000    0     1.008    2.427556   -5.147468    0.435874
  66 H     1.0000    0     1.008   -7.810849   -2.823676    6.439632
  67 H     1.0000    0     1.008   -8.900192   -5.863891    7.267586
  68 H     1.0000    0     1.008   -5.843559   -4.926970    8.145281
  69 H     1.0000    0     1.008   -5.961167   -9.767562    5.246942
  70 H     1.0000    0     1.008   -3.128230   -8.084035    5.581536
  71 H     1.0000    0     1.008   -4.182083   -8.952172    2.536609
  72 H     1.0000    0     1.008  -15.269145    8.735220    0.661060
  73 H     1.0000    0     1.008  -17.698127    6.513122    0.294791
  74 H     1.0000    0     1.008  -15.489289    6.983582   -2.170478
  75 H     1.0000    0     1.008  -14.389102    6.297775    4.796508
  76 H     1.0000    0     1.008  -12.650846    3.446625    4.564114
  77 H     1.0000    0     1.008  -15.971091    3.430840    4.278875
  78 H     1.0000    0     1.008   -6.891940    4.581436   -5.867574
  79 H     1.0000    0     1.008   -8.709051    6.820870   -7.567729
  80 H     1.0000    0     1.008   -5.737890    7.666383   -6.364044
  81 H     1.0000    0     1.008  -11.769908    9.611859   -5.012857
  82 H     1.0000    0     1.008  -10.949740   10.360922   -1.866006
  83 H     1.0000    0     1.008   -9.043200   11.393280   -4.410785
  84 H     1.0000    0     1.008   19.483344   -6.329992   -4.240078
  85 H     1.0000    0     1.008  -14.025399   -0.614055    1.647682

--------------------------------
INTERNAL COORDINATES (ANGSTROEM)
--------------------------------
 C      0   0   0     0.000000000000     0.00000000     0.00000000
 C      1   0   0     1.393265280312     0.00000000     0.00000000
 C      2   1   0     1.406761305083   119.16422726     0.00000000
 C      3   2   1     1.423551851086   118.44654209     2.18969483
 C      4   3   2     1.403147516530   122.48728652   357.49643243
 C      5   4   3     1.393148028441   117.50136755     0.99171902
 C      3   2   1     1.454247599447   134.91936532   178.13454057
 C      7   3   2     1.424580771395   106.08327360   185.52134744
 N      8   7   3     1.383798384994   109.23751445   357.68566596
 C      8   7   3     1.403364582911   122.90285579   176.57871075
 C     10   8   7     1.393440523732   117.20528642   359.37677118
 C     11  10   8     1.401963918158   121.08754492     1.68090585
 C     12  11  10     1.407632284376   122.26951906   359.78272187
 H     12  11  10     1.086839878777   118.95007316   177.75677289
 H      9   8   7     1.012561816806   125.32315165   178.94327473
 H     11  10   8     1.086593094098   119.66411101   180.62512445
 H      2   1   3     1.086046470796   119.65939251   179.03619055
 H      5   4   3     1.086787688495   121.18992560   180.36666433
 H      6   5   4     1.086759609485   119.57771322   179.89197715
 H      1   2   3     1.086577219764   119.43830236   179.88105527
 N     17   2   1     5.731586628779   163.18380396   125.73135356
 C     21  17   2     1.388344548325    31.32580553   335.17167971
 C     22  21  17     1.384348416884   114.97489087   233.21457223
 S     23  22  21     1.743852375397   110.32003048   359.89070575
 C     21  17   2     1.320004831169   128.35557530   265.02130703
 C     22  21  17     1.456078067300   119.34076719    53.80289980
 S     26  22  21     1.780079902064   122.30599340   181.00102359
 C     13  12  11     1.471629315039   117.90217947   176.15184251
 C     28  13  12     1.381799042078   126.80185818    40.34173265
 N     26  22  21     1.325105769691   124.59502661     1.09603436
 H     23  22  21     1.082803327616   126.98555736   180.30032496
 H     29  28  13     1.088574146837   123.95797828     7.24093984
 C     25  21  17     5.032252657452    99.66050248   218.28228742
 C     33  25  21     1.394543930370   148.76223396   189.25894886
 C     34  33  25     1.406435162988   120.93622903     0.88292489
 C     35  34  33     1.393938637765   120.60194758   359.91299190
 C     36  35  34     1.432649824299   119.91599543     0.23356510
 C     37  36  35     1.431730778030   119.74152711   359.95387809
 C     37  36  35     1.437277789193   121.28210018   180.27061019
 C     39  37  36     1.385697560551   119.95294845   179.37624010
 C     40  39  37     1.425560019421   122.27284585     0.37388630
 C     41  40  39     1.413947671124   118.72369677     0.03509387
 N     42  41  40     1.402617411425   120.38222586   188.43328268
 C     43  42  41     1.291064193196   125.70187740   281.86183642
 C     44  43  42     1.503992419134   119.64712345   173.65630881
 N     39  37  36     1.415108373393   119.52659028     6.05022423
 C     46  39  37     1.292236139994   123.31000768   233.17841327
 C     47  46  39     1.509064091423   118.99327139   183.12287822
 N     36  35  34     1.414433351236   120.11895884   173.63535548
 C     49  36  35     1.292034252564   123.42178999    60.93999406
 C     50  49  36     1.509007944546   119.05191357   183.12823231
 N     33  25  21     1.413706802625    92.03661648     4.37956564
 C     52  33  25     1.291603269610   123.40977852   118.61315449
 C     53  52  33     1.508510699364   119.20560922   176.22047877
 C     53  52  33     1.516283579621   124.50646778   354.44026929
 C     44  43  42     1.513122860463   123.88471455   353.85479349
 C     47  46  39     1.516809365517   124.81659530     4.97492046
 C     50  49  36     1.516798787164   124.72323119     5.13098880
 H     34  33  25     1.086279552019   119.31772123   179.41667725
 H     40  39  37     1.087607722658   118.83508177   181.69616232
 H     56  44  43     1.089239058229   110.04030259   120.77697599
 H     56  44  43     1.089942270554   110.40716369   239.35855887
 H     56  44  43     1.086862796491   111.14587877     0.18038582
 H     45  44  43     1.086395549015   111.32127066     9.64993679
 H     45  44  43     1.089546238550   111.21435004   131.49000906
 H     45  44  43     1.094826326789   108.93888947   249.89645644
 H     55  53  52     1.086591157377   111.23572399   346.92075866
 H     55  53  52     1.090505313813   110.50633645   107.20484913
 H     55  53  52     1.088826835050   110.48000879   225.70224651
 H     54  53  52     1.090063921532   110.79488163   235.33378525
 H     54  53  52     1.090330366660   110.52340188   116.89131609
 H     54  53  52     1.086143852062   111.16678664   356.39757228
 H     51  50  49     1.090602017787   110.51139194   243.75151780
 H     51  50  49     1.090088190069   110.88550467   125.28483207
 H     51  50  49     1.086171035597   111.12989481     4.17146237
 H     58  50  49     1.088850624857   110.48342901   136.00428490
 H     58  50  49     1.086721395684   111.27180348    14.76187289
 H     58  50  49     1.090598056723   110.56523899   254.51981932
 H     57  47  46     1.086770786011   111.30373882    16.09117459
 H     57  47  46     1.088793303470   110.48420960   137.38259233
 H     57  47  46     1.090584708088   110.56989772   255.92176366
 H     48  47  46     1.090581317548   110.53762830   243.43475674
 H     48  47  46     1.086224491461   111.13302429     3.89046095
 H     48  47  46     1.090092810100   110.86222349   124.97293299
 H     10   8   7     1.086269332631   121.32224341   180.06315573
 H     35  34  33     1.086357968051   119.74716802   178.36306733

---------------------------
INTERNAL COORDINATES (A.U.)
---------------------------
 C      0   0   0     0.000000000000     0.00000000     0.00000000
 C      1   0   0     2.632889811692     0.00000000     0.00000000
 C      2   1   0     2.658393602405   119.16422726     0.00000000
 C      3   2   1     2.690123135989   118.44654209     2.18969483
 C      4   3   2     2.651564531733   122.48728652   357.49643243
 C      5   4   3     2.632668237766   117.50136755     0.99171902
 C      3   2   1     2.748129693866   134.91936532   178.13454057
 C      7   3   2     2.692067513587   106.08327360   185.52134744
 N      8   7   3     2.614999972201   109.23751445   357.68566596
 C      8   7   3     2.651974727746   122.90285579   176.57871075
 C     10   8   7     2.633220973761   117.20528642   359.37677118
 C     11  10   8     2.649327854957   121.08754492     1.68090585
 C     12  11  10     2.660039514737   122.26951906   359.78272187
 H     12  11  10     2.053829722313   118.95007316   177.75677289
 H      9   8   7     1.913464527429   125.32315165   178.94327473
 H     11  10   8     2.053363366856   119.66411101   180.62512445
 H      2   1   3     2.052330398516   119.65939251   179.03619055
 H      5   4   3     2.053731096973   121.18992560   180.36666433
 H      6   5   4     2.053678035334   119.57771322   179.89197715
 H      1   2   3     2.053333368712   119.43830236   179.88105527
 N     17   2   1    10.831129041237   163.18380396   125.73135356
 C     21  17   2     2.623590975857    31.32580553   335.17167971
 C     22  21  17     2.616039381838   114.97489087   233.21457223
 S     23  22  21     3.295403407488   110.32003048   359.89070575
 C     21  17   2     2.494447626362   128.35557530   265.02130703
 C     22  21  17     2.751588776807   119.34076719    53.80289980
 S     26  22  21     3.363863511399   122.30599340   181.00102359
 C     13  12  11     2.780976376074   117.90217947   176.15184251
 C     28  13  12     2.611221761643   126.80185818    40.34173265
 N     26  22  21     2.504087003195   124.59502661     1.09603436
 H     23  22  21     2.046201746094   126.98555736   180.30032496
 H     29  28  13     2.057107013990   123.95797828     7.24093984
 C     25  21  17     9.509579359282    99.66050248   218.28228742
 C     33  25  21     2.635306110121   148.76223396   189.25894886
 C     34  33  25     2.657777283164   120.93622903     0.88292489
 C     35  34  33     2.634162272866   120.60194758   359.91299190
 C     36  35  34     2.707315813735   119.91599543     0.23356510
 C     37  36  35     2.705579067982   119.74152711   359.95387809
 C     37  36  35     2.716061399942   121.28210018   180.27061019
 C     39  37  36     2.618588893884   119.95294845   179.37624010
 C     40  39  37     2.693918024173   122.27284585     0.37388630
 C     41  40  39     2.671973866121   118.72369677     0.03509387
 N     42  41  40     2.650562778263   120.38222586   188.43328268
 C     43  42  41     2.439757746452   125.70187740   281.86183642
 C     44  43  42     2.842133779656   119.64712345   173.65630881
 N     39  37  36     2.674167275531   119.52659028     6.05022423
 C     46  39  37     2.441972404944   123.31000768   233.17841327
 C     47  46  39     2.851717851325   118.99327139   183.12287822
 N     36  35  34     2.672891668520   120.11895884   173.63535548
 C     49  36  35     2.441590892991   123.42178999    60.93999406
 C     50  49  36     2.851611749103   119.05191357   183.12823231
 N     33  25  21     2.671518690623    92.03661648     4.37956564
 C     52  33  25     2.440776453239   123.40977852   118.61315449
 C     53  52  33     2.850672091888   119.20560922   176.22047877
 C     53  52  33     2.865360706846   124.50646778   354.44026929
 C     44  43  42     2.859387813250   123.88471455   353.85479349
 C     47  46  39     2.866354298194   124.81659530     4.97492046
 C     50  49  36     2.866334308003   124.72323119     5.13098880
 H     34  33  25     2.052770858194   119.31772123   179.41667725
 H     40  39  37     2.055280736961   118.83508177   181.69616232
 H     56  44  43     2.058363514424   110.04030259   120.77697599
 H     56  44  43     2.059692393131   110.40716369   239.35855887
 H     56  44  43     2.053873030515   111.14587877     0.18038582
 H     45  44  43     2.052990060750   111.32127066     9.64993679
 H     45  44  43     2.058944001104   111.21435004   131.49000906
 H     45  44  43     2.068921921838   108.93888947   249.89645644
 H     55  53  52     2.053359706983   111.23572399   346.92075866
 H     55  53  52     2.060756390692   110.50633645   107.20484913
 H     55  53  52     2.057584525509   110.48000879   225.70224651
 H     54  53  52     2.059922280163   110.79488163   235.33378525
 H     54  53  52     2.060425788485   110.52340188   116.89131609
 H     54  53  52     2.052514422439   111.16678664   356.39757228
 H     51  50  49     2.060939134719   110.51139194   243.75151780
 H     51  50  49     2.059968141052   110.88550467   125.28483207
 H     51  50  49     2.052565791876   111.12989481     4.17146237
 H     58  50  49     2.057629481729   110.48342901   136.00428490
 H     58  50  49     2.053605821715   111.27180348    14.76187289
 H     58  50  49     2.060931649394   110.56523899   254.51981932
 H     57  47  46     2.053699155907   111.30373882    16.09117459
 H     57  47  46     2.057521160006   110.48420960   137.38259233
 H     57  47  46     2.060906424128   110.56989772   255.92176366
 H     48  47  46     2.060900016938   110.53762830   243.43475674
 H     48  47  46     2.052666808819   111.13302429     3.89046095
 H     48  47  46     2.059976871646   110.86222349   124.97293299
 H     10   8   7     2.052751546350   121.32224341   180.06315573
 H     35  34  33     2.052919043019   119.74716802   178.36306733

---------------------
BASIS SET INFORMATION
---------------------
There are 4 groups of distinct atoms

 Group   1 Type C   : 11s6p2d1f contracted to 5s3p2d1f pattern {62111/411/11/1}
 Group   2 Type N   : 11s6p2d1f contracted to 5s3p2d1f pattern {62111/411/11/1}
 Group   3 Type H   : 5s1p contracted to 3s1p pattern {311/1}
 Group   4 Type S   : 14s9p3d1f contracted to 5s5p2d1f pattern {73211/51111/21/1}

Atom   0C    basis set group =>   1
Atom   1C    basis set group =>   1
Atom   2C    basis set group =>   1
Atom   3C    basis set group =>   1
Atom   4C    basis set group =>   1
Atom   5C    basis set group =>   1
Atom   6C    basis set group =>   1
Atom   7C    basis set group =>   1
Atom   8N    basis set group =>   2
Atom   9C    basis set group =>   1
Atom  10C    basis set group =>   1
Atom  11C    basis set group =>   1
Atom  12C    basis set group =>   1
Atom  13H    basis set group =>   3
Atom  14H    basis set group =>   3
Atom  15H    basis set group =>   3
Atom  16H    basis set group =>   3
Atom  17H    basis set group =>   3
Atom  18H    basis set group =>   3
Atom  19H    basis set group =>   3
Atom  20N    basis set group =>   2
Atom  21C    basis set group =>   1
Atom  22C    basis set group =>   1
Atom  23S    basis set group =>   4
Atom  24C    basis set group =>   1
Atom  25C    basis set group =>   1
Atom  26S    basis set group =>   4
Atom  27C    basis set group =>   1
Atom  28C    basis set group =>   1
Atom  29N    basis set group =>   2
Atom  30H    basis set group =>   3
Atom  31H    basis set group =>   3
Atom  32C    basis set group =>   1
Atom  33C    basis set group =>   1
Atom  34C    basis set group =>   1
Atom  35C    basis set group =>   1
Atom  36C    basis set group =>   1
Atom  37C    basis set group =>   1
Atom  38C    basis set group =>   1
Atom  39C    basis set group =>   1
Atom  40C    basis set group =>   1
Atom  41C    basis set group =>   1
Atom  42N    basis set group =>   2
Atom  43C    basis set group =>   1
Atom  44C    basis set group =>   1
Atom  45N    basis set group =>   2
Atom  46C    basis set group =>   1
Atom  47C    basis set group =>   1
Atom  48N    basis set group =>   2
Atom  49C    basis set group =>   1
Atom  50C    basis set group =>   1
Atom  51N    basis set group =>   2
Atom  52C    basis set group =>   1
Atom  53C    basis set group =>   1
Atom  54C    basis set group =>   1
Atom  55C    basis set group =>   1
Atom  56C    basis set group =>   1
Atom  57C    basis set group =>   1
Atom  58H    basis set group =>   3
Atom  59H    basis set group =>   3
Atom  60H    basis set group =>   3
Atom  61H    basis set group =>   3
Atom  62H    basis set group =>   3
Atom  63H    basis set group =>   3
Atom  64H    basis set group =>   3
Atom  65H    basis set group =>   3
Atom  66H    basis set group =>   3
Atom  67H    basis set group =>   3
Atom  68H    basis set group =>   3
Atom  69H    basis set group =>   3
Atom  70H    basis set group =>   3
Atom  71H    basis set group =>   3
Atom  72H    basis set group =>   3
Atom  73H    basis set group =>   3
Atom  74H    basis set group =>   3
Atom  75H    basis set group =>   3
Atom  76H    basis set group =>   3
Atom  77H    basis set group =>   3
Atom  78H    basis set group =>   3
Atom  79H    basis set group =>   3
Atom  80H    basis set group =>   3
Atom  81H    basis set group =>   3
Atom  82H    basis set group =>   3
Atom  83H    basis set group =>   3
Atom  84H    basis set group =>   3
Atom  85H    basis set group =>   3
-------------------------------
AUXILIARY BASIS SET INFORMATION
-------------------------------
There are 4 groups of distinct atoms

 Group   1 Type C   : 12s5p4d2f1g contracted to 6s4p3d1f1g pattern {711111/2111/211/2/1}
 Group   2 Type N   : 12s5p4d2f1g contracted to 6s4p3d1f1g pattern {711111/2111/211/2/1}
 Group   3 Type H   : 5s2p1d contracted to 3s1p1d pattern {311/2/1}
 Group   4 Type S   : 14s5p5d2f1g contracted to 8s4p3d1f1g pattern {71111111/2111/311/2/1}

Atom   0C    basis set group =>   1
Atom   1C    basis set group =>   1
Atom   2C    basis set group =>   1
Atom   3C    basis set group =>   1
Atom   4C    basis set group =>   1
Atom   5C    basis set group =>   1
Atom   6C    basis set group =>   1
Atom   7C    basis set group =>   1
Atom   8N    basis set group =>   2
Atom   9C    basis set group =>   1
Atom  10C    basis set group =>   1
Atom  11C    basis set group =>   1
Atom  12C    basis set group =>   1
Atom  13H    basis set group =>   3
Atom  14H    basis set group =>   3
Atom  15H    basis set group =>   3
Atom  16H    basis set group =>   3
Atom  17H    basis set group =>   3
Atom  18H    basis set group =>   3
Atom  19H    basis set group =>   3
Atom  20N    basis set group =>   2
Atom  21C    basis set group =>   1
Atom  22C    basis set group =>   1
Atom  23S    basis set group =>   4
Atom  24C    basis set group =>   1
Atom  25C    basis set group =>   1
Atom  26S    basis set group =>   4
Atom  27C    basis set group =>   1
Atom  28C    basis set group =>   1
Atom  29N    basis set group =>   2
Atom  30H    basis set group =>   3
Atom  31H    basis set group =>   3
Atom  32C    basis set group =>   1
Atom  33C    basis set group =>   1
Atom  34C    basis set group =>   1
Atom  35C    basis set group =>   1
Atom  36C    basis set group =>   1
Atom  37C    basis set group =>   1
Atom  38C    basis set group =>   1
Atom  39C    basis set group =>   1
Atom  40C    basis set group =>   1
Atom  41C    basis set group =>   1
Atom  42N    basis set group =>   2
Atom  43C    basis set group =>   1
Atom  44C    basis set group =>   1
Atom  45N    basis set group =>   2
Atom  46C    basis set group =>   1
Atom  47C    basis set group =>   1
Atom  48N    basis set group =>   2
Atom  49C    basis set group =>   1
Atom  50C    basis set group =>   1
Atom  51N    basis set group =>   2
Atom  52C    basis set group =>   1
Atom  53C    basis set group =>   1
Atom  54C    basis set group =>   1
Atom  55C    basis set group =>   1
Atom  56C    basis set group =>   1
Atom  57C    basis set group =>   1
Atom  58H    basis set group =>   3
Atom  59H    basis set group =>   3
Atom  60H    basis set group =>   3
Atom  61H    basis set group =>   3
Atom  62H    basis set group =>   3
Atom  63H    basis set group =>   3
Atom  64H    basis set group =>   3
Atom  65H    basis set group =>   3
Atom  66H    basis set group =>   3
Atom  67H    basis set group =>   3
Atom  68H    basis set group =>   3
Atom  69H    basis set group =>   3
Atom  70H    basis set group =>   3
Atom  71H    basis set group =>   3
Atom  72H    basis set group =>   3
Atom  73H    basis set group =>   3
Atom  74H    basis set group =>   3
Atom  75H    basis set group =>   3
Atom  76H    basis set group =>   3
Atom  77H    basis set group =>   3
Atom  78H    basis set group =>   3
Atom  79H    basis set group =>   3
Atom  80H    basis set group =>   3
Atom  81H    basis set group =>   3
Atom  82H    basis set group =>   3
Atom  83H    basis set group =>   3
Atom  84H    basis set group =>   3
Atom  85H    basis set group =>   3
-------------------------
ECP PARAMETER INFORMATION
-------------------------



--------------------------------------------------------------------------
[[3915,1],2]: A high-performance Open MPI point-to-point messaging module
was unable to find any relevant network interfaces:

Module: OpenFabrics (openib)
  Host: cx1-108-6-4

Another transport will be used instead, although this may result in
lower performance.
--------------------------------------------------------------------------


           ************************************************************
           *        Program running with 24 parallel MPI-processes    *
           *              working on a common directory               *
           ************************************************************
------------------------------------------------------------------------------
                           ORCA GTO INTEGRAL CALCULATION
                           -- RI-GTO INTEGRALS CHOSEN --
------------------------------------------------------------------------------

                         BASIS SET STATISTICS AND STARTUP INFO

Gaussian basis set:
 # of primitive gaussian shells          ... 1216
 # of primitive gaussian functions       ... 2584
 # of contracted shells                  ...  691
 # of contracted basis functions         ... 1753
 Highest angular momentum                ...    3
 Maximum contraction depth               ...    7
Auxiliary gaussian basis set:
 # of primitive gaussian shells          ... 1478
 # of primitive gaussian functions       ... 4036
 # of contracted shells                  ...  924
 # of contracted aux-basis functions     ... 2812
 Highest angular momentum                ...    4
 Maximum contraction depth               ...    7
Ratio of auxiliary to basis functions    ...  1.60
Integral package used                  ... LIBINT
 One Electron integrals                  
   ECP integrals                         ... done
 Ordering auxiliary basis shells         ... done
 Integral threshhold             Thresh  ...  2.500e-11
 Primitive cut-off               TCut    ...  2.500e-12
 Pre-screening matrix                    ... done
 Shell pair data                         ... 
 Ordering of the shell pairs             ... done (   0.034 sec) 103907 of 239086 pairs
 Determination of significant pairs      ... done (   0.001 sec)
 Creation of shell pair data             ... done (   0.023 sec)
 Storage of shell pair data              ... done (   0.246 sec)
 Shell pair data done in (   0.303 sec)
 Computing two index integrals           ... done
 Cholesky decomposition of the V-matrix  ... done


Timings:
 Total evaluation time                   ...  14.031 sec (  0.234 min)
 One electron matrix time                ...   5.171 sec (  0.086 min) = 36.9%
 Schwartz matrix evaluation time         ...   6.005 sec (  0.100 min) = 42.8%
 Two index repulsion integral time       ...   1.061 sec (  0.018 min) =  7.6%
 Cholesky decomposition of V             ...   1.439 sec (  0.024 min) = 10.3%
 Three index repulsion integral time     ...   0.000 sec (  0.000 min) =  0.0%

--------------------------------------------------------------------------
[[3870,1],0]: A high-performance Open MPI point-to-point messaging module
was unable to find any relevant network interfaces:

Module: OpenFabrics (openib)
  Host: cx1-108-6-4

Another transport will be used instead, although this may result in
lower performance.
--------------------------------------------------------------------------


           ************************************************************
           *        Program running with 24 parallel MPI-processes    *
           *              working on a common directory               *
           ************************************************************
-------------------------------------------------------------------------------
                                 ORCA SCF
-------------------------------------------------------------------------------

------------
SCF SETTINGS
------------
Hamiltonian:
 Density Functional     Method          .... DFT(GTOs)
 Exchange Functional    Exchange        .... WB97X-D3
 Correlation Functional Correlation     .... WB97X-D3
 Gradients option       PostSCFGGA      .... off
 Hybrid DFT is turned on
   Fraction HF Exchange ScalHFX         ....  0.195728
   Scaling of DF-GGA-X  ScalDFX         ....  0.000000
   Scaling of DF-GGA-C  ScalDFC         ....  1.000000
   Scaling of DF-LDA-C  ScalLDAC        ....  1.000000
   Perturbative correction              ....  0.000000
 Long-range corrected/Screened/Range-Separated Hybrid DFT is turned on
   Amount of maximum screened exact exchange              ....  0.804272
   Range separation parameter mu (erf(mu*r12)/r12)        ....  0.250000
 RI-approximation to the Coulomb term is turned on
   Number of auxiliary basis functions  .... 2812
   RIJ-COSX (HFX calculated with COS-X)).... on


General Settings:
 Integral files         IntName         .... total
 Hartree-Fock type      HFTyp           .... RHF
 Total Charge           Charge          ....    0
 Multiplicity           Mult            ....    1
 Number of Electrons    NEL             ....  358
 Basis Dimension        Dim             .... 1753
 Nuclear Repulsion      ENuc            ....   6167.0815942044 Eh

Convergence Acceleration:
 DIIS                   CNVDIIS         .... on
   Start iteration      DIISMaxIt       ....    12
   Startup error        DIISStart       ....  0.200000
   # of expansion vecs  DIISMaxEq       ....     5
   Bias factor          DIISBfac        ....   1.050
   Max. coefficient     DIISMaxC        ....  10.000
 Newton-Raphson         CNVNR           .... off
 SOSCF                  CNVSOSCF        .... on
   Start iteration      SOSCFMaxIt      ....   150
   Startup grad/error   SOSCFStart      ....  0.003300
 Level Shifting         CNVShift        .... on
   Level shift para.    LevelShift      ....    0.2500
   Turn off err/grad.   ShiftErr        ....    0.0010
 Zerner damping         CNVZerner       .... off
 Static damping         CNVDamp         .... on
   Fraction old density DampFac         ....    0.7000
   Max. Damping (<1)    DampMax         ....    0.9800
   Min. Damping (>=0)   DampMin         ....    0.0000
   Turn off err/grad.   DampErr         ....    0.1000
 Fernandez-Rico         CNVRico         .... off

SCF Procedure:
 Maximum # iterations   MaxIter         ....   125
 SCF integral mode      SCFMode         .... Direct
   Integral package                     .... LIBINT
 Reset frequeny         DirectResetFreq ....    20
 Integral Threshold     Thresh          ....  2.500e-11 Eh
 Primitive CutOff       TCut            ....  2.500e-12 Eh

Convergence Tolerance:
 Convergence Check Mode ConvCheckMode   .... Total+1el-Energy
 Convergence forced     ConvForced      .... 1
 Energy Change          TolE            ....  1.000e-08 Eh
 1-El. energy change                    ....  1.000e-05 Eh
 Orbital Gradient       TolG            ....  1.000e-05
 Orbital Rotation angle TolX            ....  1.000e-05
 DIIS Error             TolErr          ....  5.000e-07


Diagonalization of the overlap matrix:
Smallest eigenvalue                        ... 1.960e-06
Time for diagonalization                   ...    1.054 sec
Threshold for overlap eigenvalues          ... 1.000e-08
Number of eigenvalues below threshold      ... 0
Time for construction of square roots      ...    1.261 sec
Total time needed                          ...    2.330 sec

-------------------
DFT GRID GENERATION
-------------------

General Integration Accuracy     IntAcc      ...  5.010
Radial Grid Type                 RadialGrid  ... Gauss-Chebyshev
Angular Grid (max. acc.)         AngularGrid ... Lebedev-434
Angular grid pruning method      GridPruning ... 3 (G Style)
Weight generation scheme         WeightScheme... Becke
Basis function cutoff            BFCut       ...    1.0000e-11
Integration weight cutoff        WCut        ...    1.0000e-14
Grids for H and He will be reduced by one unit

# of grid points (after initial pruning)     ... 773134 (   0.0 sec)
# of grid points (after weights+screening)   ... 657077 (   5.6 sec)
nearest neighbour list constructed           ...    0.0 sec
Grid point re-assignment to atoms done       ...    0.4 sec
Grid point division into batches done        ...    7.4 sec
Reduced shell lists constructed in    9.1 sec

Total number of grid points                  ...   657077
Total number of batches                      ...    10310
Average number of points per batch           ...       63
Average number of grid points per atom       ...     7640
Average number of shells per batch           ...   147.61 (21.36%)
Average number of basis functions per batch  ...   386.21 (22.03%)
Average number of large shells per batch     ...   101.14 (68.52%)
Average number of large basis fcns per batch ...   266.43 (68.99%)
Maximum spatial batch extension              ...  11.41, 22.91, 15.84 au
Average spatial batch extension              ...   0.05,  0.06,  0.06 au

Time for grid setup =   15.917 sec

------------------------------
INITIAL GUESS: MODEL POTENTIAL
------------------------------
Loading Hartree-Fock densities                     ... done
Calculating cut-offs                               ... done
Setting up the integral package                    ... done
Initializing the effective Hamiltonian             ... done
Starting the Coulomb interaction                   ... done (   2.0 sec)
Reading the grid                                   ... done
Mapping shells                                     ... done
Starting the XC term evaluation                    ... done (   4.4 sec)
  promolecular density results
     # of electrons  =    357.981865937
     EX              =   -311.056001959
     EC              =    -12.194999903
     EX+EC           =   -323.251001862
Transforming the Hamiltonian                       ... done (   0.6 sec)
Diagonalizing the Hamiltonian                      ... done (   1.0 sec)
Back transforming the eigenvectors                 ... done (   0.4 sec)
Now organizing SCF variables                       ... done
                      ------------------
                      INITIAL GUESS DONE (  24.8 sec)
                      ------------------
--------------------
COSX GRID GENERATION
--------------------

General Integration Accuracy     IntAcc      ...  3.340
Radial Grid Type                 RadialGrid  ... Gauss-Chebyshev
Angular Grid (max. acc.)         AngularGrid ... Lebedev-50
Angular grid pruning method      GridPruning ... 3 (G Style)
Weight generation scheme         WeightScheme... Becke
Basis function cutoff            BFCut       ...    1.0000e-11
Integration weight cutoff        WCut        ...    1.0000e-14
Grids for H and He will be reduced by one unit

# of grid points (after initial pruning)     ...  40414 (   0.0 sec)
# of grid points (after weights+screening)   ...  35874 (   0.3 sec)
nearest neighbour list constructed           ...    0.0 sec
Grid point re-assignment to atoms done       ...    0.0 sec
Grid point division into batches done        ...    0.0 sec
Reduced shell lists constructed in    0.2 sec

Total number of grid points                  ...    35874
Total number of batches                      ...      600
Average number of points per batch           ...       59
Average number of grid points per atom       ...      417
Average number of shells per batch           ...   167.65 (24.26%)
Average number of basis functions per batch  ...   440.19 (25.11%)
Average number of large shells per batch     ...   115.31 (68.78%)
Average number of large basis fcns per batch ...   308.00 (69.97%)
Maximum spatial batch extension              ...   8.87, 14.16, 13.02 au
Average spatial batch extension              ...   0.11,  0.17,  0.16 au

Overlap Fitting                  UseSFitting ... on
Constructing numerical overlap ... done (      0.3 sec)
Inverting numerical overlap    ... done (      0.4 sec)
Obtaining analytic overlap     ... done (      0.0 sec)
Final contraction and storage  ... done (      1.7 sec)


General Integration Accuracy     IntAcc      ...  3.670
Radial Grid Type                 RadialGrid  ... Gauss-Chebyshev
Angular Grid (max. acc.)         AngularGrid ... Lebedev-50
Angular grid pruning method      GridPruning ... 3 (G Style)
Weight generation scheme         WeightScheme... Becke
Basis function cutoff            BFCut       ...    1.0000e-11
Integration weight cutoff        WCut        ...    1.0000e-14
Grids for H and He will be reduced by one unit

# of grid points (after initial pruning)     ...  51054 (   0.0 sec)
# of grid points (after weights+screening)   ...  45150 (   0.4 sec)
nearest neighbour list constructed           ...    0.0 sec
Grid point re-assignment to atoms done       ...    0.0 sec
Grid point division into batches done        ...    0.0 sec
Reduced shell lists constructed in    0.2 sec

Total number of grid points                  ...    45150
Total number of batches                      ...      738
Average number of points per batch           ...       61
Average number of grid points per atom       ...      525
Average number of shells per batch           ...   164.94 (23.87%)
Average number of basis functions per batch  ...   431.50 (24.61%)
Average number of large shells per batch     ...   112.84 (68.42%)
Average number of large basis fcns per batch ...   299.97 (69.52%)
Maximum spatial batch extension              ...   9.79, 14.11, 14.11 au
Average spatial batch extension              ...   0.11,  0.17,  0.16 au

Overlap Fitting                  UseSFitting ... on
Constructing numerical overlap ... done (      0.4 sec)
Inverting numerical overlap    ... done (      0.4 sec)
Obtaining analytic overlap     ... done (      0.0 sec)
Final contraction and storage  ... done (      1.7 sec)


General Integration Accuracy     IntAcc      ...  4.010
Radial Grid Type                 RadialGrid  ... Gauss-Chebyshev
Angular Grid (max. acc.)         AngularGrid ... Lebedev-110
Angular grid pruning method      GridPruning ... 3 (G Style)
Weight generation scheme         WeightScheme... Becke
Basis function cutoff            BFCut       ...    1.0000e-11
Integration weight cutoff        WCut        ...    1.0000e-14
Grids for H and He will be reduced by one unit

# of grid points (after initial pruning)     ...  96976 (   0.0 sec)
# of grid points (after weights+screening)   ...  85120 (   0.7 sec)
nearest neighbour list constructed           ...    0.0 sec
Grid point re-assignment to atoms done       ...    0.0 sec
Grid point division into batches done        ...    0.1 sec
Reduced shell lists constructed in    0.4 sec

Total number of grid points                  ...    85120
Total number of batches                      ...     1371
Average number of points per batch           ...       62
Average number of grid points per atom       ...      990
Average number of shells per batch           ...   163.07 (23.60%)
Average number of basis functions per batch  ...   429.61 (24.51%)
Average number of large shells per batch     ...   112.75 (69.14%)
Average number of large basis fcns per batch ...   300.75 (70.00%)
Maximum spatial batch extension              ...   6.65, 14.10, 15.04 au
Average spatial batch extension              ...   0.09,  0.14,  0.14 au

Overlap Fitting                  UseSFitting ... on
Constructing numerical overlap ... done (      0.6 sec)
Inverting numerical overlap    ... done (      0.4 sec)
Obtaining analytic overlap     ... done (      0.0 sec)
Final contraction and storage  ... done (      1.8 sec)

Time for X-Grid setup             =   10.913 sec
--------------
SCF ITERATIONS
--------------
ITER       Energy         Delta-E        Max-DP      RMS-DP      [F,P]     Damp
               ***  Starting incremental Fock matrix formation  ***
  0  -2725.0585196907   0.000000000000 0.23556548  0.00091818  0.2055925 0.7000
  1  -2725.5588022286  -0.500282537917 0.23539801  0.00090071  0.1041692 0.7000
                               ***Turning on DIIS***
  2  -2725.8068613476  -0.248059119004 0.41664712  0.00183644  0.0565424 0.0000
  3  -2726.2092998488  -0.402438501181 0.17294086  0.00059289  0.0445684 0.0000
  4  -2726.2742562752  -0.064956426415 0.02292351  0.00013849  0.0121597 0.0000
  5  -2726.2772271450  -0.002970869810 0.00811973  0.00006536  0.0067595 0.0000
                      *** Initiating the SOSCF procedure ***
                           *** Shutting down DIIS ***
                      *** Re-Reading the Fockian *** 
                      *** Removing any level shift *** 
ITER      Energy       Delta-E        Grad      Rot      Max-DP    RMS-DP
  6  -2726.27783851  -0.0006113600  0.001752  0.001752  0.003985  0.000035
               *** Restarting incremental Fock matrix formation ***
  7  -2726.27803990  -0.0002013937  0.001264  0.003477  0.079329  0.000357
  8  -2726.27811992  -0.0000800248  0.000414  0.003433  0.076665  0.000286
  9  -2726.27813800  -0.0000180723  0.000262  0.000571  0.063803  0.000237
 10  -2726.27814920  -0.0000112036  0.000074  0.000173  0.010509  0.000040
 11  -2726.27814980  -0.0000005975  0.000047  0.000115  0.007206  0.000029
 12  -2726.27815014  -0.0000003438  0.000013  0.000065  0.000720  0.000003
 13  -2726.27815010   0.0000000416  0.000016  0.000054  0.001063  0.000004
 14  -2726.27815017  -0.0000000730  0.000004  0.000025  0.002790  0.000008
 15  -2726.27815024  -0.0000000672  0.000003  0.000017  0.000731  0.000003
                  ***Gradient check signals convergence***
              ***Rediagonalizing the Fockian in SOSCF/NRSCF***

               *****************************************************
               *                     SUCCESS                       *
               *           SCF CONVERGED AFTER  16 CYCLES          *
               *****************************************************

Old exchange energy                            =   -100.316903518 Eh
New exchange energy                            =   -100.317453956 Eh
Exchange energy change after final integration =     -0.000550438 Eh
Total energy after final integration           =  -2726.278700601 Eh
Final COS-X integration done in                =   125.511 sec

----------------
TOTAL SCF ENERGY
----------------

Total Energy       :        -2726.27870060 Eh          -74185.81498 eV

Components:
Nuclear Repulsion  :         6167.08159420 Eh          167814.82172 eV
Electronic Energy  :        -8893.36029481 Eh         -242000.63670 eV
One Electron Energy:       -15997.77775264 Eh         -435321.66397 eV
Two Electron Energy:         7104.41745783 Eh          193321.02728 eV

Virial components:
Potential Energy   :        -5440.56774773 Eh         -148045.37490 eV
Kinetic Energy     :         2714.28904713 Eh           73859.55992 eV
Virial Ratio       :            2.00441724


DFT components:
N(Alpha)           :      178.999970457493 electrons
N(Beta)            :      178.999970457493 electrons
N(Total)           :      357.999940914986 electrons
E(XC)              :     -230.014787697925 Eh       

---------------
SCF CONVERGENCE
---------------

  Last Energy change         ...    7.5350e-08  Tolerance :   1.0000e-08
  Last MAX-Density change    ...    1.1588e-14  Tolerance :   1.0000e-07
  Last RMS-Density change    ...    1.2708e-16  Tolerance :   5.0000e-09
  Last Orbital Gradient      ...    1.2018e-06  Tolerance :   1.0000e-05
  Last Orbital Rotation      ...    3.9228e-06  Tolerance :   1.0000e-05

             **** THE GBW FILE WAS UPDATED (total.gbw) ****
             **** DENSITY FILE WAS UPDATED (total.scfp.tmp) ****
             **** ENERGY FILE WAS UPDATED (total.en.tmp) ****
----------------
ORBITAL ENERGIES
----------------

  NO   OCC          E(Eh)            E(eV) 
   0   2.0000     -88.988147     -2421.4906 
   1   2.0000     -88.984860     -2421.4011 
   2   2.0000     -14.470041      -393.7498 
   3   2.0000     -14.428412      -392.6170 
   4   2.0000     -14.419447      -392.3731 
   5   2.0000     -14.404603      -391.9692 
   6   2.0000     -14.404434      -391.9646 
   7   2.0000     -14.404428      -391.9644 
   8   2.0000     -14.391477      -391.6120 
   9   2.0000     -10.360729      -281.9298 
  10   2.0000     -10.357743      -281.8485 
  11   2.0000     -10.331025      -281.1215 
  12   2.0000     -10.330999      -281.1208 
  13   2.0000     -10.327873      -281.0357 
  14   2.0000     -10.327645      -281.0295 
  15   2.0000     -10.326673      -281.0031 
  16   2.0000     -10.326530      -280.9992 
  17   2.0000     -10.326221      -280.9908 
  18   2.0000     -10.320455      -280.8339 
  19   2.0000     -10.320104      -280.8243 
  20   2.0000     -10.319466      -280.8070 
  21   2.0000     -10.314923      -280.6833 
  22   2.0000     -10.313277      -280.6385 
  23   2.0000     -10.309269      -280.5295 
  24   2.0000     -10.305971      -280.4397 
  25   2.0000     -10.305952      -280.4392 
  26   2.0000     -10.297506      -280.2094 
  27   2.0000     -10.292079      -280.0617 
  28   2.0000     -10.291871      -280.0561 
  29   2.0000     -10.290894      -280.0295 
  30   2.0000     -10.290569      -280.0206 
  31   2.0000     -10.289911      -280.0027 
  32   2.0000     -10.289414      -279.9892 
  33   2.0000     -10.287842      -279.9464 
  34   2.0000     -10.286230      -279.9025 
  35   2.0000     -10.285484      -279.8823 
  36   2.0000     -10.284428      -279.8535 
  37   2.0000     -10.276507      -279.6380 
  38   2.0000     -10.276487      -279.6374 
  39   2.0000     -10.273421      -279.5540 
  40   2.0000     -10.270697      -279.4799 
  41   2.0000     -10.269807      -279.4557 
  42   2.0000     -10.268897      -279.4309 
  43   2.0000     -10.268564      -279.4218 
  44   2.0000     -10.268519      -279.4206 
  45   2.0000     -10.268285      -279.4142 
  46   2.0000     -10.266662      -279.3701 
  47   2.0000     -10.252493      -278.9845 
  48   2.0000     -10.245285      -278.7884 
  49   2.0000      -8.084882      -220.0008 
  50   2.0000      -8.081279      -219.9028 
  51   2.0000      -6.037948      -164.3009 
  52   2.0000      -6.034433      -164.2053 
  53   2.0000      -6.034067      -164.1953 
  54   2.0000      -6.032007      -164.1393 
  55   2.0000      -6.030422      -164.0961 
  56   2.0000      -6.028433      -164.0420 
  57   2.0000      -1.106782       -30.1171 
  58   2.0000      -1.085104       -29.5272 
  59   2.0000      -1.066497       -29.0209 
  60   2.0000      -1.049022       -28.5453 
  61   2.0000      -1.040501       -28.3135 
  62   2.0000      -1.027535       -27.9606 
  63   2.0000      -1.021498       -27.7964 
  64   2.0000      -0.979185       -26.6450 
  65   2.0000      -0.967188       -26.3185 
  66   2.0000      -0.965929       -26.2843 
  67   2.0000      -0.933948       -25.4140 
  68   2.0000      -0.922156       -25.0931 
  69   2.0000      -0.909117       -24.7383 
  70   2.0000      -0.902346       -24.5541 
  71   2.0000      -0.899194       -24.4683 
  72   2.0000      -0.897791       -24.4301 
  73   2.0000      -0.879835       -23.9415 
  74   2.0000      -0.873240       -23.7621 
  75   2.0000      -0.864191       -23.5158 
  76   2.0000      -0.861154       -23.4332 
  77   2.0000      -0.853580       -23.2271 
  78   2.0000      -0.845682       -23.0122 
  79   2.0000      -0.840303       -22.8658 
  80   2.0000      -0.823841       -22.4179 
  81   2.0000      -0.818495       -22.2724 
  82   2.0000      -0.812786       -22.1170 
  83   2.0000      -0.812385       -22.1061 
  84   2.0000      -0.810601       -22.0576 
  85   2.0000      -0.797335       -21.6966 
  86   2.0000      -0.789342       -21.4791 
  87   2.0000      -0.767482       -20.8842 
  88   2.0000      -0.748655       -20.3719 
  89   2.0000      -0.736543       -20.0424 
  90   2.0000      -0.726271       -19.7628 
  91   2.0000      -0.722782       -19.6679 
  92   2.0000      -0.715849       -19.4792 
  93   2.0000      -0.714481       -19.4420 
  94   2.0000      -0.695187       -18.9170 
  95   2.0000      -0.688623       -18.7384 
  96   2.0000      -0.670687       -18.2503 
  97   2.0000      -0.657613       -17.8946 
  98   2.0000      -0.647407       -17.6168 
  99   2.0000      -0.643980       -17.5236 
 100   2.0000      -0.642585       -17.4856 
 101   2.0000      -0.634699       -17.2710 
 102   2.0000      -0.624445       -16.9920 
 103   2.0000      -0.614053       -16.7092 
 104   2.0000      -0.608717       -16.5640 
 105   2.0000      -0.598696       -16.2913 
 106   2.0000      -0.586947       -15.9717 
 107   2.0000      -0.585059       -15.9203 
 108   2.0000      -0.578026       -15.7289 
 109   2.0000      -0.569392       -15.4939 
 110   2.0000      -0.566313       -15.4102 
 111   2.0000      -0.564352       -15.3568 
 112   2.0000      -0.558968       -15.2103 
 113   2.0000      -0.557481       -15.1698 
 114   2.0000      -0.553892       -15.0722 
 115   2.0000      -0.549041       -14.9402 
 116   2.0000      -0.547637       -14.9020 
 117   2.0000      -0.545014       -14.8306 
 118   2.0000      -0.542863       -14.7720 
 119   2.0000      -0.541355       -14.7310 
 120   2.0000      -0.540221       -14.7002 
 121   2.0000      -0.538778       -14.6609 
 122   2.0000      -0.534760       -14.5516 
 123   2.0000      -0.533991       -14.5306 
 124   2.0000      -0.532220       -14.4824 
 125   2.0000      -0.527703       -14.3595 
 126   2.0000      -0.526452       -14.3255 
 127   2.0000      -0.523653       -14.2493 
 128   2.0000      -0.520497       -14.1634 
 129   2.0000      -0.518335       -14.1046 
 130   2.0000      -0.509856       -13.8739 
 131   2.0000      -0.503958       -13.7134 
 132   2.0000      -0.502673       -13.6784 
 133   2.0000      -0.500798       -13.6274 
 134   2.0000      -0.495597       -13.4859 
 135   2.0000      -0.489870       -13.3300 
 136   2.0000      -0.488509       -13.2930 
 137   2.0000      -0.487780       -13.2732 
 138   2.0000      -0.483608       -13.1596 
 139   2.0000      -0.482986       -13.1427 
 140   2.0000      -0.476740       -12.9728 
 141   2.0000      -0.474882       -12.9222 
 142   2.0000      -0.471665       -12.8347 
 143   2.0000      -0.468290       -12.7428 
 144   2.0000      -0.466106       -12.6834 
 145   2.0000      -0.465665       -12.6714 
 146   2.0000      -0.463021       -12.5995 
 147   2.0000      -0.460565       -12.5326 
 148   2.0000      -0.456751       -12.4288 
 149   2.0000      -0.455463       -12.3938 
 150   2.0000      -0.454025       -12.3547 
 151   2.0000      -0.452433       -12.3113 
 152   2.0000      -0.444284       -12.0896 
 153   2.0000      -0.443088       -12.0570 
 154   2.0000      -0.440758       -11.9936 
 155   2.0000      -0.440379       -11.9833 
 156   2.0000      -0.434764       -11.8305 
 157   2.0000      -0.427797       -11.6409 
 158   2.0000      -0.411971       -11.2103 
 159   2.0000      -0.406260       -11.0549 
 160   2.0000      -0.394409       -10.7324 
 161   2.0000      -0.389292       -10.5932 
 162   2.0000      -0.379602       -10.3295 
 163   2.0000      -0.377998       -10.2859 
 164   2.0000      -0.372178       -10.1275 
 165   2.0000      -0.370367       -10.0782 
 166   2.0000      -0.368837       -10.0366 
 167   2.0000      -0.365040        -9.9332 
 168   2.0000      -0.355958        -9.6861 
 169   2.0000      -0.348247        -9.4763 
 170   2.0000      -0.336346        -9.1524 
 171   2.0000      -0.326571        -8.8864 
 172   2.0000      -0.321713        -8.7542 
 173   2.0000      -0.315778        -8.5928 
 174   2.0000      -0.303498        -8.2586 
 175   2.0000      -0.297586        -8.0977 
 176   2.0000      -0.288331        -7.8459 
 177   2.0000      -0.280389        -7.6298 
 178   2.0000      -0.240584        -6.5466 
 179   0.0000      -0.005089        -0.1385 
 180   0.0000       0.011126         0.3028 
 181   0.0000       0.029297         0.7972 
 182   0.0000       0.038776         1.0551 
 183   0.0000       0.057693         1.5699 
 184   0.0000       0.074262         2.0208 
 185   0.0000       0.075601         2.0572 
 186   0.0000       0.077291         2.1032 
 187   0.0000       0.085601         2.3293 
 188   0.0000       0.089323         2.4306 
 189   0.0000       0.093859         2.5540 
 190   0.0000       0.096321         2.6210 
 191   0.0000       0.099121         2.6972 
 192   0.0000       0.106639         2.9018 
 193   0.0000       0.107294         2.9196 
 194   0.0000       0.110165         2.9978 
 195   0.0000       0.112851         3.0708 
 196   0.0000       0.115230         3.1356 
 197   0.0000       0.122796         3.3414 
 198   0.0000       0.133053         3.6206 
 199   0.0000       0.134848         3.6694 
 200   0.0000       0.140029         3.8104 
 201   0.0000       0.140438         3.8215 
 202   0.0000       0.143808         3.9132 
 203   0.0000       0.148417         4.0386 
 204   0.0000       0.149076         4.0566 
 205   0.0000       0.151626         4.1259 
 206   0.0000       0.155663         4.2358 
 207   0.0000       0.157679         4.2907 
 208   0.0000       0.160958         4.3799 
 209   0.0000       0.164505         4.4764 
 210   0.0000       0.166060         4.5187 
 211   0.0000       0.170142         4.6298 
 212   0.0000       0.172646         4.6979 
 213   0.0000       0.175673         4.7803 
 214   0.0000       0.179127         4.8743 
 215   0.0000       0.180501         4.9117 
 216   0.0000       0.182897         4.9769 
 217   0.0000       0.184224         5.0130 
 218   0.0000       0.186890         5.0855 
 219   0.0000       0.188826         5.1382 
 220   0.0000       0.190571         5.1857 
 221   0.0000       0.192016         5.2250 
 222   0.0000       0.193769         5.2727 
 223   0.0000       0.196104         5.3362 
 224   0.0000       0.197999         5.3878 
 225   0.0000       0.201587         5.4855 
 226   0.0000       0.207250         5.6396 
 227   0.0000       0.208119         5.6632 
 228   0.0000       0.210052         5.7158 
 229   0.0000       0.213319         5.8047 
 230   0.0000       0.215012         5.8508 
 231   0.0000       0.220960         6.0126 
 232   0.0000       0.223336         6.0773 
 233   0.0000       0.224788         6.1168 
 234   0.0000       0.229816         6.2536 
 235   0.0000       0.232713         6.3324 
 236   0.0000       0.234043         6.3686 
 237   0.0000       0.236923         6.4470 
 238   0.0000       0.238664         6.4944 
 239   0.0000       0.240242         6.5373 
 240   0.0000       0.241189         6.5631 
 241   0.0000       0.242219         6.5911 
 242   0.0000       0.245215         6.6726 
 243   0.0000       0.246296         6.7021 
 244   0.0000       0.247929         6.7465 
 245   0.0000       0.248378         6.7587 
 246   0.0000       0.251414         6.8413 
 247   0.0000       0.253131         6.8881 
 248   0.0000       0.254245         6.9184 
 249   0.0000       0.257613         7.0100 
 250   0.0000       0.262752         7.1498 
 251   0.0000       0.264301         7.1920 
 252   0.0000       0.266550         7.2532 
 253   0.0000       0.268838         7.3154 
 254   0.0000       0.270033         7.3480 
 255   0.0000       0.272243         7.4081 
 256   0.0000       0.275174         7.4879 
 257   0.0000       0.279318         7.6006 
 258   0.0000       0.280411         7.6304 
 259   0.0000       0.281383         7.6568 
 260   0.0000       0.283672         7.7191 
 261   0.0000       0.288300         7.8450 
 262   0.0000       0.290014         7.8917 
 263   0.0000       0.290916         7.9162 
 264   0.0000       0.293185         7.9780 
 265   0.0000       0.294261         8.0073 
 266   0.0000       0.296721         8.0742 
 267   0.0000       0.297027         8.0825 
 268   0.0000       0.298486         8.1222 
 269   0.0000       0.299130         8.1397 
 270   0.0000       0.301181         8.1956 
 271   0.0000       0.301648         8.2082 
 272   0.0000       0.305390         8.3101 
 273   0.0000       0.306170         8.3313 
 274   0.0000       0.308482         8.3942 
 275   0.0000       0.310130         8.4391 
 276   0.0000       0.312120         8.4932 
 277   0.0000       0.316598         8.6151 
 278   0.0000       0.317708         8.6453 
 279   0.0000       0.320116         8.7108 
 280   0.0000       0.323160         8.7936 
 281   0.0000       0.327031         8.8990 
 282   0.0000       0.328618         8.9422 
 283   0.0000       0.332223         9.0403 
 284   0.0000       0.334035         9.0895 
 285   0.0000       0.336858         9.1664 
 286   0.0000       0.339051         9.2261 
 287   0.0000       0.342148         9.3103 
 288   0.0000       0.346149         9.4192 
 289   0.0000       0.347704         9.4615 
 290   0.0000       0.353451         9.6179 
 291   0.0000       0.353915         9.6305 
 292   0.0000       0.358023         9.7423 
 293   0.0000       0.359802         9.7907 
 294   0.0000       0.360893         9.8204 
 295   0.0000       0.362738         9.8706 
 296   0.0000       0.367187         9.9917 
 297   0.0000       0.371267        10.1027 
 298   0.0000       0.372585        10.1386 
 299   0.0000       0.373948        10.1757 
 300   0.0000       0.375295        10.2123 
 301   0.0000       0.377992        10.2857 
 302   0.0000       0.379437        10.3250 
 303   0.0000       0.381401        10.3785 
 304   0.0000       0.381866        10.3911 
 305   0.0000       0.383407        10.4330 
 306   0.0000       0.384926        10.4744 
 307   0.0000       0.389040        10.5863 
 308   0.0000       0.391202        10.6451 
 309   0.0000       0.391428        10.6513 
 310   0.0000       0.393825        10.7165 
 311   0.0000       0.395120        10.7518 
 312   0.0000       0.400970        10.9109 
 313   0.0000       0.403703        10.9853 
 314   0.0000       0.405031        11.0215 
 315   0.0000       0.407039        11.0761 
 316   0.0000       0.409170        11.1341 
 317   0.0000       0.411656        11.2017 
 318   0.0000       0.413895        11.2627 
 319   0.0000       0.416123        11.3233 
 320   0.0000       0.418539        11.3890 
 321   0.0000       0.422433        11.4950 
 322   0.0000       0.423307        11.5188 
 323   0.0000       0.424988        11.5645 
 324   0.0000       0.428804        11.6683 
 325   0.0000       0.429330        11.6827 
 326   0.0000       0.431361        11.7379 
 327   0.0000       0.434045        11.8110 
 328   0.0000       0.434851        11.8329 
 329   0.0000       0.438677        11.9370 
 330   0.0000       0.439128        11.9493 
 331   0.0000       0.439584        11.9617 
 332   0.0000       0.442418        12.0388 
 333   0.0000       0.444945        12.1076 
 334   0.0000       0.446378        12.1466 
 335   0.0000       0.448645        12.2083 
 336   0.0000       0.449205        12.2235 
 337   0.0000       0.451603        12.2888 
 338   0.0000       0.454836        12.3767 
 339   0.0000       0.456185        12.4134 
 340   0.0000       0.460334        12.5263 
 341   0.0000       0.461892        12.5687 
 342   0.0000       0.465210        12.6590 
 343   0.0000       0.467238        12.7142 
 344   0.0000       0.468311        12.7434 
 345   0.0000       0.468882        12.7589 
 346   0.0000       0.471238        12.8230 
 347   0.0000       0.473251        12.8778 
 348   0.0000       0.474153        12.9024 
 349   0.0000       0.477253        12.9867 
[...]
 343   9.399     131.9   0.070777   0.062824  36.826963  30.569178     0.02 (  96-> 117)    0.02 ( 101-> 128)    0.02 ( 116-> 186)
 344   9.403     131.9   0.004592   0.003941  -1.167265   0.161679     0.04 ( 114-> 131)    0.03 ( 114-> 129)    0.02 ( 113-> 128)
 345   9.409     131.8   0.013628   0.012514  -9.387579  -9.659750     0.02 ( 107-> 136)    0.02 ( 115-> 130)    0.02 ( 115-> 132)
 346   9.412     131.7   0.006954   0.005243  -16.370519  -14.205011     0.02 ( 106-> 119)    0.02 ( 103-> 128)    0.01 ( 114-> 158)
 347   9.418     131.6   0.006879   0.006606  27.878347  27.686142     0.03 ( 114-> 131)    0.02 ( 114-> 129)    0.02 ( 114-> 160)
 348   9.427     131.5   0.037654   0.033065  -73.398407  -67.975632     0.05 ( 113-> 128)    0.02 ( 113-> 127)    0.01 ( 115-> 128)
 349   9.429     131.5   0.011123   0.010109   1.106646   1.699851     0.04 ( 110-> 124)    0.02 (  96-> 117)    0.02 ( 107-> 136)
 350   9.437     131.4   0.019008   0.017095   2.033641   2.420837     0.02 ( 112-> 165)    0.02 ( 112-> 126)    0.02 ( 112-> 141)
 351   9.438     131.4   0.034198   0.031079  51.796510  45.573107     0.02 ( 114-> 158)    0.02 ( 116-> 173)    0.02 ( 110-> 158)
 352   9.445     131.3   0.014949   0.015760  14.167006  14.516537     0.03 ( 116-> 179)    0.02 (  97-> 123)    0.02 ( 101-> 128)
 353   9.446     131.3   0.005711   0.005140  14.503040  14.199274     0.08 ( 114-> 131)    0.05 ( 114-> 129)    0.04 ( 114-> 133)
 354   9.456     131.1   0.004800   0.004507   5.373067   4.909679     0.11 (  96-> 117)    0.09 (  97-> 117)    0.04 (  91-> 117)
 355   9.469     130.9   0.006637   0.005095  11.590547  10.139411     0.06 ( 115-> 134)    0.04 ( 114-> 134)    0.03 ( 110-> 134)
 356   9.474     130.9   0.005956   0.005036   7.754658   7.144180     0.03 (  97-> 117)    0.02 (  96-> 117)    0.01 ( 116-> 177)
 357   9.477     130.8   0.025662   0.022916  -0.859104   0.287989     0.02 ( 116-> 174)    0.02 (  96-> 123)    0.01 ( 110-> 140)
 358   9.487     130.7   0.022965   0.019188  22.249425  20.094033     0.02 ( 108-> 140)    0.01 ( 115-> 143)    0.01 ( 114-> 147)
 359   9.494     130.6   0.009256   0.008503   7.895906   7.561549     0.11 ( 108-> 121)    0.02 ( 116-> 174)    0.02 ( 109-> 121)
 360   9.498     130.5   0.016434   0.013802  -32.619507  -30.733672     0.05 (  96-> 123)    0.02 ( 101-> 119)    0.01 ( 105-> 125)
 361   9.505     130.4   0.004199   0.003875   9.369501   9.009636     0.13 ( 108-> 121)    0.02 ( 109-> 121)    0.02 ( 113-> 128)
 362   9.510     130.4   0.018747   0.015672  -45.322567  -42.899707     0.12 ( 108-> 121)    0.02 ( 116-> 173)    0.02 ( 116-> 174)
 363   9.512     130.3   0.004233   0.003764  -13.086411  -12.036667     0.15 ( 108-> 121)    0.02 ( 113-> 128)    0.01 (  96-> 123)
 364   9.516     130.3   0.020807   0.017199  -30.772620  -27.964743     0.03 (  71-> 117)    0.02 ( 116-> 178)    0.02 ( 107-> 136)
 365   9.519     130.3   0.011433   0.009165  -9.439896  -11.365299     0.02 (  99-> 124)    0.02 ( 107-> 136)    0.02 ( 104-> 129)
 366   9.529     130.1   0.014554   0.013472  -11.541453  -10.843271     0.05 ( 113-> 128)    0.03 ( 112-> 128)    0.02 ( 116-> 178)
 367   9.539     130.0   0.017965   0.014836  31.469990  28.827135     0.02 ( 115-> 135)    0.01 ( 107-> 136)    0.01 ( 116-> 178)
 368   9.541     129.9   0.015684   0.013368  -8.964888  -8.142407     0.04 ( 111-> 135)    0.03 ( 116-> 173)    0.02 (  80-> 118)
 369   9.548     129.9   0.007378   0.007390   0.119687  -0.040515     0.02 ( 115-> 130)    0.01 ( 115-> 139)    0.01 ( 107-> 125)
 370   9.555     129.8   0.008353   0.007327  -7.688020  -9.893185     0.02 ( 111-> 129)    0.02 ( 114-> 141)    0.02 ( 114-> 156)
 371   9.561     129.7   0.004877   0.003507   8.231455   7.367329     0.03 ( 111-> 126)    0.01 ( 111-> 128)    0.01 ( 102-> 119)
 372   9.568     129.6   0.015001   0.013114  -34.654779  -31.531967     0.01 ( 116-> 178)    0.01 (  78-> 118)    0.01 (  80-> 118)
 373   9.569     129.6   0.012202   0.010449   4.806533   4.239886     0.09 ( 112-> 128)    0.03 ( 113-> 128)    0.02 (  95-> 117)
 374   9.575     129.5   0.014490   0.012437  15.608111  16.071740     0.02 ( 100-> 120)    0.01 ( 102-> 119)    0.01 ( 111-> 126)
 375   9.579     129.4   0.027172   0.024325  35.634910  33.651257     0.02 ( 111-> 126)    0.02 ( 108-> 139)    0.01 ( 111-> 128)
 376   9.584     129.4   0.021567   0.018461  35.403336  31.207716     0.03 (  95-> 117)    0.02 ( 116-> 174)    0.02 (  83-> 117)
 377   9.588     129.3   0.003846   0.002595  -0.358660  -0.236253     0.03 ( 100-> 120)    0.02 ( 104-> 121)    0.02 ( 104-> 119)
 378   9.595     129.2   0.011457   0.010116  -4.695895  -4.823519     0.04 (  78-> 118)    0.02 ( 112-> 128)    0.02 (  76-> 118)
 379   9.598     129.2   0.007287   0.005734  -5.101997  -2.235704     0.02 (  78-> 118)    0.02 ( 116-> 151)    0.02 ( 112-> 151)
 380   9.610     129.0   0.029778   0.024731  -0.897682   2.090093     0.02 ( 116-> 172)    0.02 ( 115-> 134)    0.01 ( 100-> 120)
 381   9.614     129.0   0.008218   0.006678   5.628349   3.730661     0.07 (  80-> 118)    0.03 (  83-> 118)    0.02 ( 112-> 128)
 382   9.618     128.9   0.005742   0.004552  -22.338629  -19.841588     0.02 ( 106-> 123)    0.02 (  98-> 123)    0.02 ( 101-> 123)
 383   9.620     128.9   0.005167   0.004196  -5.210979  -6.785608     0.01 (  80-> 117)    0.01 ( 114-> 162)    0.01 (  98-> 119)
 384   9.625     128.8   0.004849   0.004096  11.283557  10.783268     0.03 ( 116-> 174)    0.03 ( 116-> 181)    0.03 ( 116-> 172)
 385   9.634     128.7   0.020646   0.017090  -11.409213  -10.563350     0.02 ( 114-> 141)    0.02 ( 104-> 141)    0.01 ( 116-> 173)
 386   9.639     128.6   0.004025   0.003297  20.305963  17.956936     0.02 (  83-> 118)    0.02 ( 111-> 129)    0.02 ( 116-> 173)
 387   9.644     128.6   0.007458   0.007146  -2.862622  -2.272708     0.03 (  83-> 118)    0.02 ( 116-> 177)    0.02 ( 101-> 119)
 388   9.651     128.5   0.006300   0.005827  -3.842577  -1.608862     0.03 ( 106-> 121)    0.02 (  80-> 118)    0.02 (  83-> 118)
 389   9.653     128.4   0.011484   0.009365  18.670763  16.018619     0.01 ( 111-> 162)    0.01 (  69-> 118)    0.01 ( 106-> 138)
 390   9.663     128.3   0.000859   0.000738   0.494694  -0.103469     0.02 (  96-> 123)    0.01 (  78-> 118)    0.01 ( 116-> 175)
 391   9.666     128.3   0.011942   0.010154  -3.581244  -4.168231     0.02 ( 116-> 182)    0.02 ( 105-> 126)    0.01 ( 103-> 141)
 392   9.669     128.2   0.004811   0.004346   7.520546   6.787321     0.02 ( 111-> 129)    0.02 ( 115-> 135)    0.01 ( 102-> 122)
 393   9.672     128.2   0.006277   0.004403  -14.250820  -11.922357     0.02 (  78-> 118)    0.02 ( 101-> 123)    0.01 ( 116-> 182)
 394   9.677     128.1   0.003748   0.003308  -10.744939  -10.796711     0.01 ( 104-> 143)    0.01 (  76-> 118)    0.01 ( 114-> 166)
 395   9.679     128.1   0.002889   0.002534   2.729406   2.052166     0.02 ( 115-> 170)    0.02 ( 115-> 171)    0.02 ( 115-> 135)
 396   9.688     128.0   0.011941   0.010706  -12.790362  -11.685633     0.02 ( 111-> 129)    0.02 ( 116-> 179)    0.01 ( 116-> 178)
 397   9.694     127.9   0.020087   0.016785  -43.005970  -39.249596     0.04 (  80-> 118)    0.04 ( 106-> 121)    0.03 (  83-> 118)
 398   9.696     127.9   0.019292   0.016188  24.411990  22.277228     0.03 ( 111-> 129)    0.02 ( 105-> 141)    0.02 ( 108-> 124)
 399   9.701     127.8   0.008331   0.006491  -12.297463  -10.956914     0.03 ( 101-> 119)    0.02 ( 106-> 121)    0.01 (  78-> 118)
 400   9.705     127.8   0.009831   0.008673  23.594570  21.011992     0.02 ( 115-> 135)    0.01 ( 109-> 134)    0.01 ( 113-> 130)
 401   9.710     127.7   0.003182   0.002075  -3.903725  -3.793301     0.02 ( 116-> 183)    0.02 (  90-> 117)    0.01 ( 116-> 160)
 402   9.712     127.7   0.019142   0.015392  11.086551   9.804392     0.03 ( 116-> 182)    0.02 ( 106-> 128)    0.02 ( 104-> 122)
 403   9.721     127.5   0.011786   0.010216  35.189526  33.095104     0.02 (  83-> 117)    0.02 ( 100-> 120)    0.01 (  80-> 117)
 404   9.727     127.5   0.007260   0.005329  -15.884950  -13.773057     0.02 ( 115-> 135)    0.02 (  90-> 117)    0.02 ( 116-> 183)
 405   9.736     127.3   0.009703   0.008248  -62.876992  -58.837932     0.02 (  81-> 117)    0.02 (  90-> 117)    0.01 ( 108-> 124)
 406   9.740     127.3   0.050138   0.040835  31.859206  27.571684     0.02 ( 100-> 119)    0.02 ( 102-> 120)    0.02 (  90-> 117)
 407   9.743     127.2   0.000443   0.000349  -0.929933  -1.823111     0.05 ( 108-> 124)    0.01 ( 111-> 124)    0.01 ( 104-> 129)
 408   9.747     127.2   0.008115   0.006006  -27.560343  -23.165753     0.02 (  69-> 118)    0.01 (  77-> 118)    0.01 ( 111-> 133)
 409   9.752     127.1   0.016779   0.014504  -26.820172  -24.435244     0.03 ( 111-> 130)    0.01 ( 115-> 135)    0.01 ( 101-> 125)
 410   9.754     127.1   0.014171   0.013380  22.212509  21.232149     0.12 ( 108-> 124)    0.03 ( 113-> 132)    0.03 ( 113-> 130)
 411   9.760     127.0   0.018278   0.015186  -9.264399  -8.646548     0.04 ( 106-> 121)    0.03 ( 113-> 130)    0.02 ( 103-> 121)
 412   9.765     127.0   0.000497   0.000451  -5.960475  -5.723032     0.03 ( 113-> 132)    0.02 ( 113-> 133)    0.02 ( 116-> 157)
 413   9.773     126.9   0.007685   0.006712  -6.516558  -3.979278     0.03 ( 103-> 121)    0.02 ( 105-> 121)    0.02 ( 113-> 134)
 414   9.776     126.8   0.010988   0.009061  35.919436  32.074704     0.03 ( 116-> 184)    0.02 (  83-> 118)    0.02 (  81-> 117)
 415   9.781     126.8   0.057776   0.048868  76.576675  70.212911     0.02 ( 104-> 141)    0.01 ( 104-> 123)    0.01 ( 108-> 142)
 416   9.784     126.7   0.013499   0.011111   4.937069   3.589563     0.03 ( 108-> 124)    0.02 ( 109-> 124)    0.02 ( 115-> 146)
 417   9.792     126.6   0.011704   0.010893  -12.603744  -10.617062     0.06 ( 113-> 130)    0.03 ( 108-> 124)    0.02 ( 101-> 126)
 418   9.800     126.5   0.004820   0.004682  -4.603275  -4.066945     0.07 (  83-> 117)    0.04 (  80-> 117)    0.02 (  69-> 118)
 419   9.803     126.5   0.027015   0.022681  20.754424  19.430049     0.03 ( 113-> 130)    0.01 (  80-> 117)    0.01 ( 112-> 132)
 420   9.808     126.4   0.020791   0.017197  13.835973  12.560951     0.03 ( 106-> 121)    0.03 ( 108-> 124)    0.02 ( 102-> 121)
 421   9.810     126.4   0.014348   0.011858  50.543118  48.320071     0.04 (  72-> 118)    0.03 ( 116-> 184)    0.01 ( 116-> 180)
 422   9.815     126.3   0.011625   0.010033  24.335965  23.920397     0.07 ( 114-> 131)    0.06 ( 114-> 132)    0.03 ( 114-> 133)
 423   9.819     126.3   0.010228   0.008407   7.936358   7.199851     0.07 ( 114-> 132)    0.06 ( 114-> 133)    0.06 ( 114-> 131)
 424   9.824     126.2   0.013806   0.011421  -6.473332  -5.783887     0.02 (  85-> 117)    0.02 ( 114-> 132)    0.02 ( 108-> 124)
 425   9.826     126.2   0.010667   0.007588  -14.314466  -9.162238     0.05 ( 114-> 132)    0.03 ( 103-> 121)    0.02 ( 114-> 131)
 426   9.831     126.1   0.017323   0.015255  -37.273627  -37.765895     0.02 ( 103-> 121)    0.02 (  72-> 118)    0.02 ( 105-> 121)
 427   9.835     126.1   0.007283   0.006277  -1.739298  -1.639829     0.02 ( 110-> 129)    0.02 ( 109-> 129)    0.01 ( 110-> 131)
 428   9.843     126.0   0.017554   0.014296  -1.738778  -1.005430     0.05 ( 114-> 132)    0.02 ( 110-> 127)    0.02 ( 114-> 133)
 429   9.850     125.9   0.012437   0.009999  20.404493  18.751573     0.02 ( 111-> 131)    0.02 ( 114-> 133)    0.02 (  77-> 118)
 430   9.858     125.8   0.008688   0.007887  -9.115831  -8.890980     0.05 ( 116-> 184)    0.02 (  98-> 122)    0.01 ( 106-> 130)
 431   9.860     125.7   0.033655   0.028281  -21.723960  -21.311895     0.05 ( 103-> 121)    0.02 ( 105-> 121)    0.02 ( 110-> 129)
 432   9.865     125.7   0.001533   0.001055   2.733554   2.184380     0.01 ( 112-> 133)    0.01 (  85-> 117)    0.01 ( 104-> 126)
 433   9.865     125.7   0.015974   0.012191  -18.854721  -16.560842     0.03 (  71-> 118)    0.02 (  72-> 118)    0.02 (  77-> 118)
 434   9.869     125.6   0.029799   0.025919  20.103859  18.733429     0.02 ( 116-> 184)    0.02 ( 116-> 180)    0.02 ( 104-> 122)
 435   9.870     125.6   0.012872   0.010539  -6.931259  -6.084129     0.02 ( 116-> 184)    0.02 ( 111-> 167)    0.02 ( 116-> 178)
 436   9.878     125.5   0.001530   0.001018   6.199211   3.706606     0.01 ( 106-> 134)    0.01 (  70-> 118)    0.01 ( 116-> 183)
 437   9.882     125.5   0.077148   0.063432  -23.484234  -21.204747     0.03 ( 116-> 174)    0.03 ( 107-> 122)    0.02 ( 116-> 150)
 438   9.885     125.4   0.025791   0.020516  23.630294  21.907550     0.02 ( 116-> 178)    0.01 ( 116-> 183)    0.01 ( 112-> 132)
 439   9.890     125.4   0.004768   0.003909  -1.334723  -1.359980     0.03 ( 112-> 130)    0.01 ( 104-> 125)    0.01 ( 107-> 122)
 440   9.893     125.3   0.032125   0.027557  -0.861759  -2.881591     0.02 ( 111-> 135)    0.02 ( 116-> 181)    0.01 ( 116-> 180)
 441   9.901     125.2   0.026751   0.022072  -24.791620  -22.341116     0.01 ( 116-> 181)    0.01 (  78-> 122)    0.01 ( 104-> 122)
 442   9.910     125.1   0.026089   0.021792  -38.047408  -37.344376     0.02 ( 112-> 130)    0.02 ( 113-> 130)    0.02 ( 112-> 135)
 443   9.911     125.1   0.015665   0.013426   9.143060   9.130035     0.05 (  71-> 118)    0.03 ( 103-> 121)    0.03 (  80-> 117)
 444   9.916     125.0   0.041967   0.036629  -92.714965  -86.051408     0.02 (  89-> 124)    0.02 ( 111-> 135)    0.02 ( 107-> 122)
 445   9.923     124.9   0.021303   0.017515  46.144525  42.924362     0.02 ( 116-> 150)    0.02 ( 107-> 122)    0.02 ( 104-> 128)
 446   9.925     124.9   0.022528   0.019230  -88.497567  -82.486259     0.03 ( 116-> 149)    0.02 ( 112-> 130)    0.01 ( 110-> 135)
 447   9.930     124.9   0.055482   0.043772  113.995985  102.690183     0.05 ( 116-> 149)    0.03 ( 116-> 150)    0.02 (  89-> 124)
 448   9.933     124.8   0.017477   0.013188  24.471573  21.571560     0.04 ( 116-> 181)    0.03 ( 116-> 149)    0.03 ( 116-> 174)
 449   9.939     124.7   0.004799   0.003867   5.136919   4.412731     0.02 ( 114-> 147)    0.02 ( 114-> 148)    0.02 ( 114-> 146)
 450   9.947     124.6   0.013349   0.010801  -15.912475  -14.136872     0.02 ( 103-> 123)    0.02 ( 115-> 171)    0.01 ( 107-> 122)
 451   9.951     124.6   0.012332   0.010906  -17.905093  -15.737695     0.04 ( 103-> 123)    0.03 ( 105-> 123)    0.02 ( 101-> 125)
 452   9.955     124.5   0.042585   0.034776   0.422751   0.857857     0.02 ( 112-> 131)    0.01 (  87-> 118)    0.01 ( 114-> 141)
 453   9.961     124.5   0.064605   0.057892  30.500503  29.725272     0.02 ( 103-> 123)    0.02 ( 105-> 123)    0.02 (  96-> 122)
 454   9.964     124.4   0.026888   0.023488  42.508129  41.075075     0.03 ( 107-> 122)    0.02 ( 112-> 130)    0.02 ( 113-> 134)
 455   9.967     124.4   0.112376   0.093696  32.840650  30.803185     0.02 (  89-> 124)    0.01 ( 116-> 184)    0.01 ( 115-> 146)
 456   9.977     124.3   0.028786   0.024936  51.071043  50.069574     0.02 ( 111-> 135)    0.01 (  93-> 122)    0.01 ( 103-> 128)
 457   9.977     124.3   0.016972   0.013578  37.313964  28.747415     0.05 ( 105-> 123)    0.05 ( 103-> 123)    0.04 ( 102-> 123)
 458   9.984     124.2   0.002569   0.002059   5.463692   4.770167     0.05 ( 116-> 151)    0.02 ( 116-> 149)    0.01 (  64-> 117)
 459   9.987     124.1   0.015120   0.012137  14.546075  13.566273     0.03 ( 105-> 123)    0.03 ( 102-> 123)    0.02 ( 103-> 127)
 460   9.994     124.1   0.034315   0.029824  -54.349976  -50.808431     0.02 ( 116-> 151)    0.02 ( 114-> 141)    0.01 (  98-> 120)
 461   9.997     124.0   0.053334   0.043132  -31.375784  -28.356131     0.02 ( 116-> 151)    0.01 ( 113-> 130)    0.01 (  87-> 118)

sTD-DFT done

Total run time:      208.659 sec

           *** ORCA-CIS/TD-DFT FINISHED WITHOUT ERROR ***


-------------------------------------------------------------------------------
                          DFT DISPERSION CORRECTION                            
                                                                               
                              DFTD3 V3.1  Rev 1                                
                              USING zero damping                               
-------------------------------------------------------------------------------
The omegaB97X-D3 functional is recognized. Fit by Chai et al.
Active option DFTDOPT                   ...         3   

molecular C6(AA) [au] = 96528.153970 


            DFT-D V3
 parameters
 s6 scaling factor         :     1.0000 
 rs6 scaling factor        :     1.2810 
 s8 scaling factor         :     1.0000 
 rs8 scaling factor        :     1.0940 
 Damping factor alpha6     :    14.0000 
 Damping factor alpha8     :    16.0000 
 ad hoc parameters k1-k3   :    16.0000     1.3333    -4.0000 

 Edisp/kcal,au: -32.162459403574  -0.051254136076 
 E6   /kcal   : -15.923464850 
 E8   /kcal   : -16.238994554 
 % E8         :  50.490524839 

-------------------------   ----------------
Dispersion correction           -0.051254136
-------------------------   ----------------


-------------------------   --------------------
FINAL SINGLE POINT ENERGY     -2726.329954796214
-------------------------   --------------------


                            ***************************************
                            *     ORCA property calculations      *
                            ***************************************

                                    ---------------------
                                    Active property flags
                                    ---------------------
   (+) Dipole Moment
   (+) Quadrupole Moment


------------------------------------------------------------------------------
                       ORCA ELECTRIC PROPERTIES CALCULATION
------------------------------------------------------------------------------

Dipole Moment Calculation                       ... on
Quadrupole Moment Calculation                   ... on
Polarizability Calculation                      ... off
GBWName                                         ... total_job2.gbw
Electron density file                           ... total_job2.scfp.tmp

-------------
DIPOLE MOMENT
-------------
                                X             Y             Z
Electronic contribution:     57.55521       1.93757      -9.72289
Nuclear contribution   :    -56.54767      -1.88467       9.71930
                        -----------------------------------------
Total Dipole Moment    :      1.00754       0.05289      -0.00359
                        -----------------------------------------
Magnitude (a.u.)       :      1.00894
Magnitude (Debye)      :      2.56451


------------------------
QUADRUPOLE MOMENT (A.U.)
------------------------

                XX           YY           ZZ           XY           XZ           YZ
  NUC     40345.31253   7067.79012   2610.56893  -5978.02858  -1932.49501   -934.22809
  EL     -40506.43930  -7271.48492  -2826.93396   5965.96355   1921.77161    930.29171
  TOT      -161.12677   -203.69480   -216.36503    -12.06503    -10.72339     -3.93638

--------------------------------------------------------------------------
[[5214,1],0]: A high-performance Open MPI point-to-point messaging module
was unable to find any relevant network interfaces:

Module: OpenFabrics (openib)
  Host: cx1-108-6-4

Another transport will be used instead, although this may result in
lower performance.
--------------------------------------------------------------------------

Timings for individual modules:

Sum of individual times         ...      670.653 sec (=  11.178 min)
GTO integral calculation        ...       14.519 sec (=   0.242 min)   2.2 %
SCF iterations                  ...      436.028 sec (=   7.267 min)  65.0 %
CIS module                      ...      220.106 sec (=   3.668 min)  32.8 %



                             ****ORCA TERMINATED NORMALLY****
TOTAL RUN TIME: 0 days 0 hours 38 minutes 37 seconds 307 msec
