
                                 *****************
                                 * O   R   C   A *
                                 *****************

           --- An Ab Initio, DFT and Semiempirical electronic structure package ---

                  #######################################################
                  #                        -***-                        #
                  #  Department of molecular theory and spectroscopy    #
                  #              Directorship: Frank Neese              #
                  # Max Planck Institute for Chemical Energy Conversion #
                  #                  D-45470 Muelheim/Ruhr              #
                  #                       Germany                       #
                  #                                                     #
                  #                  All rights reserved                #
                  #                        -***-                        #
                  #######################################################


                         Program Version 4.0.0 -  RELEASE  -


 With contributions from (in alphabetic order):
   Daniel Aravena         : Magnetic Properties
   Michael Atanasov       : Ab Initio Ligand Field Theory
   Ute Becker             : Parallelization
   Martin Brehm           : Molecular dynamics
   Dmytro Bykov           : SCF Hessian
   Vijay G. Chilkuri      : MRCI spin determinant printing
   Dipayan Datta          : RHF DLPNO-CCSD density
   Achintya Kumar Dutta   : EOM-CC, STEOM-CC
   Dmitry Ganyushin       : Spin-Orbit,Spin-Spin,Magnetic field MRCI
   Yang Guo               : DLPNO-NEVPT2, CIM, IAO-localization
   Andreas Hansen         : Spin unrestricted coupled pair/coupled cluster methods
   Lee Huntington         : MR-EOM, pCC
   Robert Izsak           : Overlap fitted RIJCOSX, COSX-SCS-MP3, EOM
   Christian Kollmar      : KDIIS, OOCD, Brueckner-CCSD(T), CCSD density
   Simone Kossmann        : Meta GGA functionals, TD-DFT gradient, OOMP2, MP2 Hessian
   Martin Krupicka        : AUTO-CI
   Dagmar Lenk            : GEPOL surface
   Dimitrios Liakos       : Extrapolation schemes; parallel MDCI
   Dimitrios Manganas     : ROCIS; embedding schemes
   Dimitrios Pantazis     : SARC Basis sets
   Taras Petrenko         : DFT Hessian,TD-DFT gradient, ASA, ECA, R-Raman, ABS, FL, XAS/XES, NRVS
   Peter Pinski           : DLPNO-MP2
   Christoph Reimann      : Effective Core Potentials
   Marius Retegan         : Local ZFS, SOC
   Christoph Riplinger    : Optimizer, TS searches, QM/MM, DLPNO-CCSD(T), (RO)-DLPNO pert. Triples
   Tobias Risthaus        : Range-separated hybrids, TD-DFT gradient, RPA, STAB
   Michael Roemelt        : Restricted open shell CIS
   Masaaki Saitow         : Open-shell DLPNO
   Barbara Sandhoefer     : DKH picture change effects
   Kantharuban Sivalingam : CASSCF convergence, NEVPT2, FIC-MRCI
   Georgi Stoychev        : AutoAux
   Boris Wezisla          : Elementary symmetry handling
   Frank Wennmohs         : Technical directorship


 We gratefully acknowledge several colleagues who have allowed us to
 interface, adapt or use parts of their codes:
   Stefan Grimme, W. Hujo, H. Kruse,             : VdW corrections, initial TS optimization,
                  C. Bannwarth                     DFT functionals, gCP, sTDA/sTD-DF
   Ed Valeev                                     : LibInt (2-el integral package), F12 methods
   Garnet Chan, S. Sharma, J. Yang, R. Olivares  : DMRG
   Ulf Ekstrom                                   : XCFun DFT Library
   Mihaly Kallay                                 : mrcc  (arbitrary order and MRCC methods)
   Jiri Pittner, Ondrej Demel                    : Mk-CCSD
   Frank Weinhold                                : gennbo (NPA and NBO analysis)
   Christopher J. Cramer and Donald G. Truhlar   : smd solvation model


 Your calculation uses the libint2 library for the computation of 2-el integrals
 For citations please refer to: http://libint.valeyev.net

 This ORCA versions uses:
   CBLAS   interface :  Fast vector & matrix operations
   LAPACKE interface :  Fast linear algebra routines
   SCALAPACK package :  Parallel linear algebra routines


Your calculation utilizes the atom-pairwise dispersion correction
with the zero-damping scheme (D30)
Cite in your paper:
S.Grimme, J.Antony, S.Ehrlich and H.Krieg, J.Chem.Phys., 132, (2010), 154104 
   

XCFun DFT library Copyright 2009-2010 Ulf Ekstrom and contributors.
See http://admol.org/xcfun for more information. This is free soft-
ware; see the source code for copying conditions. There is ABSOLUTELY
NO WARRANTY; not even for MERCHANTABILITY or FITNESS FOR A PARTICULAR
PURPOSE. For details see the documentation. Scientific users of this 
library should cite U. Ekstrom, L. Visscher, R. Bast, A. J. Thorvald-
sen and K. Ruud; J.Chem.Theor.Comp. 2010, DOI: 10.1021/ct100117s
XCFun Version 0.99 
Your calculation utilizes the basis: def2-TZVP
   F. Weigend and R. Ahlrichs, Phys. Chem. Chem. Phys. 7, 3297 (2005).

Your calculation utilizes the auxiliary basis: def2/J
   F. Weigend, Phys. Chem. Chem. Phys. 8, 1057 (2006).

================================================================================
                                        WARNINGS
                       Please study these warnings very carefully!
================================================================================

Warning: TCutStore was < 0. Adjusted to Thresh (uncritical)
INFO   : Checking CIS options ...

WARNING: CIS/ROCIS methods need fully converged wavefunctions
  ===> : Setting SCFConvForced true
         You can overwrite this default with %scf ConvForced false 


INFO   : the flag for use of LIBINT has been found!

Your calculation utilizes the atom-pairwise dispersion correction
with the zero-damping scheme (D30)
Cite in your paper:
S.Grimme, J.Antony, S.Ehrlich and H.Krieg, J.Chem.Phys., 132, (2010), 154104 
   

XCFun DFT library Copyright 2009-2010 Ulf Ekstrom and contributors.
See http://admol.org/xcfun for more information. This is free soft-
ware; see the source code for copying conditions. There is ABSOLUTELY
NO WARRANTY; not even for MERCHANTABILITY or FITNESS FOR A PARTICULAR
PURPOSE. For details see the documentation. Scientific users of this 
library should cite U. Ekstrom, L. Visscher, R. Bast, A. J. Thorvald-
sen and K. Ruud; J.Chem.Theor.Comp. 2010, DOI: 10.1021/ct100117s
XCFun Version 0.99 
Your calculation utilizes the basis: def2-TZVP
   F. Weigend and R. Ahlrichs, Phys. Chem. Chem. Phys. 7, 3297 (2005).

Your calculation utilizes the auxiliary basis: def2/J
   F. Weigend, Phys. Chem. Chem. Phys. 8, 1057 (2006).

================================================================================
                                        WARNINGS
                       Please study these warnings very carefully!
================================================================================

INFO   : Checking CIS options ...

INFO   : the flag for use of LIBINT has been found!

================================================================================
                                       INPUT FILE
================================================================================
NAME = total.inp
|  1> # 
|  2> !wB97X-D3 def2-TZVP def2/J RIJCOSX Grid5 FinalGrid6 TightSCF
|  3> %pal 
|  4>  nprocs 24
|  5> end
|  6> %tddft
|  7>   Mode sTDDFT
|  8>   nroots 2
|  9>   Ethresh 10.0
| 10>   maxcore 5000
| 11>   triplets true
| 12> end
| 13> * xyz 0 1 
| 14> C -4.77210660 -2.81874206 0.45235623
| 15> C -4.04017616 -1.65249484 0.24485601
| 16> C -4.72350234 -0.42796758 0.11843046
| 17> C -6.14320123 -0.43198750 0.21934491
| 18> C -6.88367368 -1.60678133 0.42137916
| 19> C -6.17561269 -2.80039170 0.53523356
| 20> C -4.32551880 0.95839138 -0.07132952
| 21> C -5.53233998 1.71926695 -0.05512383
| 22> N -6.60838659 0.86605444 0.10230519
| 23> C -5.55952880 3.11746930 -0.16237059
| 24> C -4.33600005 3.77472694 -0.27326072
| 25> C -3.13406210 3.05653786 -0.29014158
| 26> C -3.09082307 1.65104960 -0.20996233
| 27> H -2.19961637 3.60333283 -0.39409509
| 28> H -7.57829754 1.15140219 0.15894072
| 29> H -4.30988753 4.85778483 -0.35122830
| 30> H -2.95693936 -1.69392286 0.17872310
| 31> H -7.96788948 -1.58301335 0.49121554
| 32> H -6.71459988 -3.73091441 0.69262206
| 33> H -4.24936842 -3.76636798 0.54946924
| 34> S 2.81007728 -1.33563087 -0.70102366
| 35> C 1.98429045 0.15831798 -0.21558310
| 36> N 2.81126511 1.09508868 0.23383848
| 37> N 4.12007090 0.71879443 0.22977550
| 38> C 4.31547936 -0.51698137 -0.22436877
| 39> C 0.55280493 0.32010800 -0.30658808
| 40> N -0.26766328 -0.61883781 -0.76159236
| 41> N -1.58069212 -0.23890170 -0.75423498
| 42> C -1.78695077 0.98524593 -0.29176687
| 43> S -0.27653065 1.80461819 0.17940254
| 44> C 5.60314617 -1.15290176 -0.33048202
| 45> S 5.76887257 -2.78272445 -0.93986277
| 46> C 7.49298509 -2.79579580 -0.75924902
| 47> C 7.94161511 -1.58020711 -0.24316256
| 48> C 6.87216785 -0.63908801 0.00385750
| 49> N 9.25974657 -1.25870756 0.02248667
| 50> C 9.45722331 -0.04562138 0.51055975
| 51> C 8.39153706 0.88904561 0.75550676
| 52> N 7.11910927 0.61515096 0.51312241
| 53> H 10.49052384 0.24803106 0.73481275
| 54> H 8.62815100 1.87982374 1.16225820
| 55> H -6.49758242 3.66518083 -0.14835890
| 56> H 8.09188402 -3.65724030 -1.02631170
| 57> *
| 58> $new_job
| 59> # 
| 60> !wB97X-D3 def2-TZVP def2/J RIJCOSX Grid5 FinalGrid6 TightSCF
| 61> %pal 
| 62>  nprocs 24
| 63> end
| 64> %elprop
| 65>    dipole     true
| 66>    quadrupole true
| 67> end
| 68> %tddft
| 69>   Mode sTDDFT
| 70>   nroots 2
| 71>   Ethresh 10.0
| 72>   maxcore 5000
| 73> end
| 74> * xyz 0 1 
| 75> C -4.77210660 -2.81874206 0.45235623
| 76> C -4.04017616 -1.65249484 0.24485601
| 77> C -4.72350234 -0.42796758 0.11843046
| 78> C -6.14320123 -0.43198750 0.21934491
| 79> C -6.88367368 -1.60678133 0.42137916
| 80> C -6.17561269 -2.80039170 0.53523356
| 81> C -4.32551880 0.95839138 -0.07132952
| 82> C -5.53233998 1.71926695 -0.05512383
| 83> N -6.60838659 0.86605444 0.10230519
| 84> C -5.55952880 3.11746930 -0.16237059
| 85> C -4.33600005 3.77472694 -0.27326072
| 86> C -3.13406210 3.05653786 -0.29014158
| 87> C -3.09082307 1.65104960 -0.20996233
| 88> H -2.19961637 3.60333283 -0.39409509
| 89> H -7.57829754 1.15140219 0.15894072
| 90> H -4.30988753 4.85778483 -0.35122830
| 91> H -2.95693936 -1.69392286 0.17872310
| 92> H -7.96788948 -1.58301335 0.49121554
| 93> H -6.71459988 -3.73091441 0.69262206
| 94> H -4.24936842 -3.76636798 0.54946924
| 95> S 2.81007728 -1.33563087 -0.70102366
| 96> C 1.98429045 0.15831798 -0.21558310
| 97> N 2.81126511 1.09508868 0.23383848
| 98> N 4.12007090 0.71879443 0.22977550
| 99> C 4.31547936 -0.51698137 -0.22436877
|100> C 0.55280493 0.32010800 -0.30658808
|101> N -0.26766328 -0.61883781 -0.76159236
|102> N -1.58069212 -0.23890170 -0.75423498
|103> C -1.78695077 0.98524593 -0.29176687
|104> S -0.27653065 1.80461819 0.17940254
|105> C 5.60314617 -1.15290176 -0.33048202
|106> S 5.76887257 -2.78272445 -0.93986277
|107> C 7.49298509 -2.79579580 -0.75924902
|108> C 7.94161511 -1.58020711 -0.24316256
|109> C 6.87216785 -0.63908801 0.00385750
|110> N 9.25974657 -1.25870756 0.02248667
|111> C 9.45722331 -0.04562138 0.51055975
|112> C 8.39153706 0.88904561 0.75550676
|113> N 7.11910927 0.61515096 0.51312241
|114> H 10.49052384 0.24803106 0.73481275
|115> H 8.62815100 1.87982374 1.16225820
|116> H -6.49758242 3.66518083 -0.14835890
|117> H 8.09188402 -3.65724030 -1.02631170
|118> *
|119> 
|120>                          ****END OF INPUT****
================================================================================


                 $$$$$$$$$$$$$$$$$$$$$$$$$$$$$$$$$$$$$$$$$$$$$$ 
                 $ THERE ARE  2 JOBS TO BE PROCESSED THIS RUN $
                 $$$$$$$$$$$$$$$$$$$$$$$$$$$$$$$$$$$$$$$$$$$$$$ 




                 $$$$$$$$$$$$$$$$  JOB NUMBER  1 $$$$$$$$$$$$$$


                       ****************************
                       * Single Point Calculation *
                       ****************************

---------------------------------
CARTESIAN COORDINATES (ANGSTROEM)
---------------------------------
  C     -4.772107   -2.818742    0.452356
  C     -4.040176   -1.652495    0.244856
  C     -4.723502   -0.427968    0.118430
  C     -6.143201   -0.431987    0.219345
  C     -6.883674   -1.606781    0.421379
  C     -6.175613   -2.800392    0.535234
  C     -4.325519    0.958391   -0.071330
  C     -5.532340    1.719267   -0.055124
  N     -6.608387    0.866054    0.102305
  C     -5.559529    3.117469   -0.162371
  C     -4.336000    3.774727   -0.273261
  C     -3.134062    3.056538   -0.290142
  C     -3.090823    1.651050   -0.209962
  H     -2.199616    3.603333   -0.394095
  H     -7.578298    1.151402    0.158941
  H     -4.309888    4.857785   -0.351228
  H     -2.956939   -1.693923    0.178723
  H     -7.967889   -1.583013    0.491216
  H     -6.714600   -3.730914    0.692622
  H     -4.249368   -3.766368    0.549469
  S      2.810077   -1.335631   -0.701024
  C      1.984290    0.158318   -0.215583
  N      2.811265    1.095089    0.233838
  N      4.120071    0.718794    0.229775
  C      4.315479   -0.516981   -0.224369
  C      0.552805    0.320108   -0.306588
  N     -0.267663   -0.618838   -0.761592
  N     -1.580692   -0.238902   -0.754235
  C     -1.786951    0.985246   -0.291767
  S     -0.276531    1.804618    0.179403
  C      5.603146   -1.152902   -0.330482
  S      5.768873   -2.782724   -0.939863
  C      7.492985   -2.795796   -0.759249
  C      7.941615   -1.580207   -0.243163
  C      6.872168   -0.639088    0.003857
  N      9.259747   -1.258708    0.022487
  C      9.457223   -0.045621    0.510560
  C      8.391537    0.889046    0.755507
  N      7.119109    0.615151    0.513122
  H     10.490524    0.248031    0.734813
  H      8.628151    1.879824    1.162258
  H     -6.497582    3.665181   -0.148359
  H      8.091884   -3.657240   -1.026312

----------------------------
CARTESIAN COORDINATES (A.U.)
----------------------------
  NO LB      ZA    FRAG     MASS         X           Y           Z
   0 C     6.0000    0    12.011   -9.017975   -5.326651    0.854829
   1 C     6.0000    0    12.011   -7.634826   -3.122763    0.462711
   2 C     6.0000    0    12.011   -8.926126   -0.808742    0.223801
   3 C     6.0000    0    12.011  -11.608968   -0.816338    0.414502
   4 C     6.0000    0    12.011  -13.008258   -3.036377    0.796291
   5 C     6.0000    0    12.011  -11.670217   -5.291973    1.011445
   6 C     6.0000    0    12.011   -8.174046    1.811097   -0.134793
   7 C     6.0000    0    12.011  -10.454607    3.248944   -0.104169
   8 N     7.0000    0    14.007  -12.488041    1.636606    0.193329
   9 C     6.0000    0    12.011  -10.505987    5.891163   -0.306836
  10 C     6.0000    0    12.011   -8.193853    7.133200   -0.516388
  11 C     6.0000    0    12.011   -5.922519    5.776019   -0.548288
  12 C     6.0000    0    12.011   -5.840809    3.120032   -0.396771
  13 H     1.0000    0     1.008   -4.156673    6.809312   -0.744732
  14 H     1.0000    0     1.008  -14.320907    2.175835    0.300354
  15 H     1.0000    0     1.008   -8.144507    9.179883   -0.663725
  16 H     1.0000    0     1.008   -5.587806   -3.201050    0.337738
  17 H     1.0000    0     1.008  -15.057129   -2.991462    0.928263
  18 H     1.0000    0     1.008  -12.688755   -7.050406    1.308866
  19 H     1.0000    0     1.008   -8.030143   -7.117404    1.038346
  20 S    16.0000    0    32.060    5.310276   -2.523977   -1.324743
  21 C     6.0000    0    12.011    3.749766    0.299178   -0.407393
  22 N     7.0000    0    14.007    5.312521    2.069418    0.441891
  23 N     7.0000    0    14.007    7.785806    1.358325    0.434213
  24 C     6.0000    0    12.011    8.155074   -0.976953   -0.423996
  25 C     6.0000    0    12.011    1.044650    0.604916   -0.579368
  26 N     7.0000    0    14.007   -0.505810   -1.169434   -1.439201
  27 N     7.0000    0    14.007   -2.987075   -0.451459   -1.425298
  28 C     6.0000    0    12.011   -3.376848    1.861845   -0.551359
  29 S    16.0000    0    32.060   -0.522567    3.410234    0.339022
  30 C     6.0000    0    12.011   10.588412   -2.178669   -0.624521
  31 S    16.0000    0    32.060   10.901589   -5.258587   -1.776083
  32 C     6.0000    0    12.011   14.159690   -5.283288   -1.434773
  33 C     6.0000    0    12.011   15.007478   -2.986159   -0.459511
  34 C     6.0000    0    12.011   12.986515   -1.207701    0.007290
  35 N     7.0000    0    14.007   17.498385   -2.378613    0.042494
  36 C     6.0000    0    12.011   17.871562   -0.086212    0.964818
  37 C     6.0000    0    12.011   15.857707    1.680053    1.427701
  38 N     7.0000    0    14.007   13.453167    1.162467    0.969661
  39 H     1.0000    0     1.008   19.824217    0.468711    1.388595
  40 H     1.0000    0     1.008   16.304842    3.552352    2.196350
  41 H     1.0000    0     1.008  -12.278651    6.926188   -0.280358
  42 H     1.0000    0     1.008   15.291445   -6.911183   -1.939448

--------------------------------
INTERNAL COORDINATES (ANGSTROEM)
--------------------------------
 C      0   0   0     0.000000000000     0.00000000     0.00000000
 C      1   0   0     1.392447876388     0.00000000     0.00000000
 C      2   1   0     1.407971980705   119.12387281     0.00000000
 C      3   2   1     1.423286627578   118.37759841     0.49478403
 C      4   3   2     1.403302472879   122.60922473   359.14192213
 C      5   4   3     1.392486590718   117.45555705     0.54440234
 C      3   2   1     1.454782084744   135.05187831   178.50244896
 C      7   3   2     1.426748617630   105.98165989   182.63628711
 N      8   7   3     1.382256050973   109.30432656   358.71527399
 C      8   7   3     1.402572961029   123.17238607   177.68232171
 C     10   8   7     1.393307872778   117.34307239   359.22325980
 C     11  10   8     1.400262601699   120.84952786     0.65766945
 C     12  11  10     1.408437281118   122.51277415     0.59272596
 H     12  11  10     1.087648791556   118.73521675   179.02808092
 H      9   8   7     1.012599709964   125.31565129   179.09343352
 H     11  10   8     1.086174571753   119.81461975   180.44887610
 H      2   1   3     1.086044109371   120.09328825   180.21933046
 H      5   4   3     1.086722567086   121.15728759   180.23242342
 H      6   5   4     1.086807639255   119.57608769   179.97977246
 H      1   2   3     1.086591471436   119.39830079   179.93380785
 S     17   2   1     5.844724838507   172.29918202   145.49362778
 C     21  17   2     1.774671685780    63.33972309    55.26650657
 N     22  21  17     1.327933051487   113.36857258   163.05291642
 N     23  22  21     1.361832025739   113.73912910     0.00000000
 C     24  23  22     1.331004625116   113.49440880     0.00000000
 C     22  21  17     1.443471063418   122.58588115   343.10361685
 N     26  22  21     1.327334250502   123.73305627   359.68156016
 N     27  26  22     1.366912694137   113.28464417   179.98209775
 C     28  27  26     1.324747826381   114.09699241   359.72088770
 S     26  22  21     1.768545982211   122.80630623   179.83691807
 C     25  24  23     1.440048810915   124.50106355   180.00195323
 S     31  25  24     1.747893629191   121.48251783   180.01922288
 C     32  31  25     1.733596310708    93.72710279   180.00146046
 C     33  32  31     1.394729361667   110.60239119     0.00000000
 C     31  25  24     1.409327324873   128.80587170     0.00000000
 N     34  33  32     1.382534636055   125.48231097   179.99996953
 C     36  34  33     1.322418418795   115.25250007   179.99967516
 C     37  36  34     1.438502208320   123.24698187     0.00000000
 N     38  37  36     1.323948991913   123.12097768     0.00000000
 H     37  36  34     1.097374662012   117.48424983   180.00057836
 H     38  37  36     1.096847388396   119.35697149   179.99930508
 H     10   8   7     1.086337351630   121.22253546   179.87782030
 H     33  32  31     1.082630606432   122.03665929   180.00165866

---------------------------
INTERNAL COORDINATES (A.U.)
---------------------------
 C      0   0   0     0.000000000000     0.00000000     0.00000000
 C      1   0   0     2.631345142133     0.00000000     0.00000000
 C      2   1   0     2.660681447766   119.12387281     0.00000000
 C      3   2   1     2.689621936195   118.37759841     0.49478403
 C      4   3   2     2.651857356796   122.60922473   359.14192213
 C      5   4   3     2.631418301616   117.45555705     0.54440234
 C      3   2   1     2.749139724702   135.05187831   178.50244896
 C      7   3   2     2.696164149271   105.98165989   182.63628711
 N      8   7   3     2.612085383294   109.30432656   358.71527399
 C      8   7   3     2.650478779187   123.17238607   177.68232171
 C     10   8   7     2.632970299788   117.34307239   359.22325980
 C     11  10   8     2.646112832782   120.84952786     0.65766945
 C     12  11  10     2.661560738118   122.51277415     0.59272596
 H     12  11  10     2.055358345932   118.73521675   179.02808092
 H      9   8   7     1.913536135119   125.31565129   179.09343352
 H     11  10   8     2.052572474243   119.81461975   180.44887610
 H      2   1   3     2.052325936070   120.09328825   180.21933046
 H      5   4   3     2.053608035345   121.15728759   180.23242342
 H      6   5   4     2.053768798445   119.57608769   179.97977246
 H      1   2   3     2.053360300468   119.39830079   179.93380785
 S     17   2   1    11.044929272906   172.29918202   145.49362778
 C     21  17   2     3.353643463749    63.33972309    55.26650657
 N     22  21  17     2.509429791492   113.36857258   163.05291642
 N     23  22  21     2.573489569049   113.73912910     0.00000000
 C     24  23  22     2.515234224451   113.49440880     0.00000000
 C     22  21  17     2.727764992101   122.58588115   343.10361685
 N     26  22  21     2.508298221622   123.73305627   359.68156016
 N     27  26  22     2.583090640900   113.28464417   179.98209775
 C     28  27  26     2.503410588368   114.09699241   359.72088770
 S     26  22  21     3.342067561626   122.80630623   179.83691807
 C     25  24  23     2.721297872109   124.50106355   180.00195323
 S     31  25  24     3.303040270397   121.48251783   180.01922288
 C     32  31  25     3.276022254015    93.72710279   180.00146046
 C     33  32  31     2.635656524490   110.60239119     0.00000000
 C     31  25  24     2.663242677061   128.80587170     0.00000000
 N     34  33  32     2.612611832804   125.48231097   179.99996953
 C     36  34  33     2.499008645976   115.25250007   179.99967516
 C     37  36  34     2.718375216766   123.24698187     0.00000000
 N     38  37  36     2.501901009997   123.12097768     0.00000000
 H     37  36  34     2.073737577506   117.48424983   180.00057836
 H     38  37  36     2.072741174775   119.35697149   179.99930508
 H     10   8   7     2.052880083630   121.22253546   179.87782030
 H     33  32  31     2.045875350358   122.03665929   180.00165866

---------------------
BASIS SET INFORMATION
---------------------
There are 4 groups of distinct atoms

 Group   1 Type C   : 11s6p2d1f contracted to 5s3p2d1f pattern {62111/411/11/1}
 Group   2 Type N   : 11s6p2d1f contracted to 5s3p2d1f pattern {62111/411/11/1}
 Group   3 Type H   : 5s1p contracted to 3s1p pattern {311/1}
 Group   4 Type S   : 14s9p3d1f contracted to 5s5p2d1f pattern {73211/51111/21/1}

Atom   0C    basis set group =>   1
Atom   1C    basis set group =>   1
Atom   2C    basis set group =>   1
Atom   3C    basis set group =>   1
Atom   4C    basis set group =>   1
Atom   5C    basis set group =>   1
Atom   6C    basis set group =>   1
Atom   7C    basis set group =>   1
Atom   8N    basis set group =>   2
Atom   9C    basis set group =>   1
Atom  10C    basis set group =>   1
Atom  11C    basis set group =>   1
Atom  12C    basis set group =>   1
Atom  13H    basis set group =>   3
Atom  14H    basis set group =>   3
Atom  15H    basis set group =>   3
Atom  16H    basis set group =>   3
Atom  17H    basis set group =>   3
Atom  18H    basis set group =>   3
Atom  19H    basis set group =>   3
Atom  20S    basis set group =>   4
Atom  21C    basis set group =>   1
Atom  22N    basis set group =>   2
Atom  23N    basis set group =>   2
Atom  24C    basis set group =>   1
Atom  25C    basis set group =>   1
Atom  26N    basis set group =>   2
Atom  27N    basis set group =>   2
Atom  28C    basis set group =>   1
Atom  29S    basis set group =>   4
Atom  30C    basis set group =>   1
Atom  31S    basis set group =>   4
Atom  32C    basis set group =>   1
Atom  33C    basis set group =>   1
Atom  34C    basis set group =>   1
Atom  35N    basis set group =>   2
Atom  36C    basis set group =>   1
Atom  37C    basis set group =>   1
Atom  38N    basis set group =>   2
Atom  39H    basis set group =>   3
Atom  40H    basis set group =>   3
Atom  41H    basis set group =>   3
Atom  42H    basis set group =>   3
-------------------------------
AUXILIARY BASIS SET INFORMATION
-------------------------------
There are 4 groups of distinct atoms

 Group   1 Type C   : 12s5p4d2f1g contracted to 6s4p3d1f1g pattern {711111/2111/211/2/1}
 Group   2 Type N   : 12s5p4d2f1g contracted to 6s4p3d1f1g pattern {711111/2111/211/2/1}
 Group   3 Type H   : 5s2p1d contracted to 3s1p1d pattern {311/2/1}
 Group   4 Type S   : 14s5p5d2f1g contracted to 8s4p3d1f1g pattern {71111111/2111/311/2/1}

Atom   0C    basis set group =>   1
Atom   1C    basis set group =>   1
Atom   2C    basis set group =>   1
Atom   3C    basis set group =>   1
Atom   4C    basis set group =>   1
Atom   5C    basis set group =>   1
Atom   6C    basis set group =>   1
Atom   7C    basis set group =>   1
Atom   8N    basis set group =>   2
Atom   9C    basis set group =>   1
Atom  10C    basis set group =>   1
Atom  11C    basis set group =>   1
Atom  12C    basis set group =>   1
Atom  13H    basis set group =>   3
Atom  14H    basis set group =>   3
Atom  15H    basis set group =>   3
Atom  16H    basis set group =>   3
Atom  17H    basis set group =>   3
Atom  18H    basis set group =>   3
Atom  19H    basis set group =>   3
Atom  20S    basis set group =>   4
Atom  21C    basis set group =>   1
Atom  22N    basis set group =>   2
Atom  23N    basis set group =>   2
Atom  24C    basis set group =>   1
Atom  25C    basis set group =>   1
Atom  26N    basis set group =>   2
Atom  27N    basis set group =>   2
Atom  28C    basis set group =>   1
Atom  29S    basis set group =>   4
Atom  30C    basis set group =>   1
Atom  31S    basis set group =>   4
Atom  32C    basis set group =>   1
Atom  33C    basis set group =>   1
Atom  34C    basis set group =>   1
Atom  35N    basis set group =>   2
Atom  36C    basis set group =>   1
Atom  37C    basis set group =>   1
Atom  38N    basis set group =>   2
Atom  39H    basis set group =>   3
Atom  40H    basis set group =>   3
Atom  41H    basis set group =>   3
Atom  42H    basis set group =>   3
-------------------------
ECP PARAMETER INFORMATION
-------------------------



--------------------------------------------------------------------------
[[47781,1],6]: A high-performance Open MPI point-to-point messaging module
was unable to find any relevant network interfaces:

Module: OpenFabrics (openib)
  Host: cx1-136-17-1

Another transport will be used instead, although this may result in
lower performance.
--------------------------------------------------------------------------


           ************************************************************
           *        Program running with 24 parallel MPI-processes    *
           *              working on a common directory               *
           ************************************************************
------------------------------------------------------------------------------
                           ORCA GTO INTEGRAL CALCULATION
                           -- RI-GTO INTEGRALS CHOSEN --
------------------------------------------------------------------------------

                         BASIS SET STATISTICS AND STARTUP INFO

Gaussian basis set:
 # of primitive gaussian shells          ...  727
 # of primitive gaussian functions       ... 1611
 # of contracted shells                  ...  402
 # of contracted basis functions         ... 1076
 Highest angular momentum                ...    3
 Maximum contraction depth               ...    7
Auxiliary gaussian basis set:
 # of primitive gaussian shells          ...  865
 # of primitive gaussian functions       ... 2437
 # of contracted shells                  ...  541
 # of contracted aux-basis functions     ... 1695
 Highest angular momentum                ...    4
 Maximum contraction depth               ...    7
Ratio of auxiliary to basis functions    ...  1.58
Integral package used                  ... LIBINT
 One Electron integrals                  
   ECP integrals                         ... done
 Ordering auxiliary basis shells         ... done
 Integral threshhold             Thresh  ...  2.500e-11
 Primitive cut-off               TCut    ...  2.500e-12
 Pre-screening matrix                    ... done
 Shell pair data                         ... 
 Ordering of the shell pairs             ... done (   0.014 sec) 40080 of 81003 pairs
 Determination of significant pairs      ... done (   0.000 sec)
 Creation of shell pair data             ... done (   0.010 sec)
 Storage of shell pair data              ... done (   0.938 sec)
 Shell pair data done in (   0.962 sec)
 Computing two index integrals           ... done
 Cholesky decomposition of the V-matrix  ... done


Timings:
 Total evaluation time                   ...  10.592 sec (  0.177 min)
 One electron matrix time                ...   2.442 sec (  0.041 min) = 23.1%
 Schwartz matrix evaluation time         ...   2.693 sec (  0.045 min) = 25.4%
 Two index repulsion integral time       ...   2.141 sec (  0.036 min) = 20.2%
 Cholesky decomposition of V             ...   2.313 sec (  0.039 min) = 21.8%
 Three index repulsion integral time     ...   0.000 sec (  0.000 min) =  0.0%

--------------------------------------------------------------------------
[[47990,1],4]: A high-performance Open MPI point-to-point messaging module
was unable to find any relevant network interfaces:

Module: OpenFabrics (openib)
  Host: cx1-136-17-1

Another transport will be used instead, although this may result in
lower performance.
--------------------------------------------------------------------------


           ************************************************************
           *        Program running with 24 parallel MPI-processes    *
           *              working on a common directory               *
           ************************************************************
-------------------------------------------------------------------------------
                                 ORCA SCF
-------------------------------------------------------------------------------

------------
SCF SETTINGS
------------
Hamiltonian:
 Density Functional     Method          .... DFT(GTOs)
 Exchange Functional    Exchange        .... WB97X-D3
 Correlation Functional Correlation     .... WB97X-D3
 Gradients option       PostSCFGGA      .... off
 Hybrid DFT is turned on
   Fraction HF Exchange ScalHFX         ....  0.195728
   Scaling of DF-GGA-X  ScalDFX         ....  0.000000
   Scaling of DF-GGA-C  ScalDFC         ....  1.000000
   Scaling of DF-LDA-C  ScalLDAC        ....  1.000000
   Perturbative correction              ....  0.000000
 Long-range corrected/Screened/Range-Separated Hybrid DFT is turned on
   Amount of maximum screened exact exchange              ....  0.804272
   Range separation parameter mu (erf(mu*r12)/r12)        ....  0.250000
 RI-approximation to the Coulomb term is turned on
   Number of auxiliary basis functions  .... 1695
   RIJ-COSX (HFX calculated with COS-X)).... on


General Settings:
 Integral files         IntName         .... total
 Hartree-Fock type      HFTyp           .... RHF
 Total Charge           Charge          ....    0
 Multiplicity           Mult            ....    1
 Number of Electrons    NEL             ....  240
 Basis Dimension        Dim             .... 1076
 Nuclear Repulsion      ENuc            ....   3190.8851216846 Eh

Convergence Acceleration:
 DIIS                   CNVDIIS         .... on
   Start iteration      DIISMaxIt       ....    12
   Startup error        DIISStart       ....  0.200000
   # of expansion vecs  DIISMaxEq       ....     5
   Bias factor          DIISBfac        ....   1.050
   Max. coefficient     DIISMaxC        ....  10.000
 Newton-Raphson         CNVNR           .... off
 SOSCF                  CNVSOSCF        .... on
   Start iteration      SOSCFMaxIt      ....   150
   Startup grad/error   SOSCFStart      ....  0.003300
 Level Shifting         CNVShift        .... on
   Level shift para.    LevelShift      ....    0.2500
   Turn off err/grad.   ShiftErr        ....    0.0010
 Zerner damping         CNVZerner       .... off
 Static damping         CNVDamp         .... on
   Fraction old density DampFac         ....    0.7000
   Max. Damping (<1)    DampMax         ....    0.9800
   Min. Damping (>=0)   DampMin         ....    0.0000
   Turn off err/grad.   DampErr         ....    0.1000
 Fernandez-Rico         CNVRico         .... off

SCF Procedure:
 Maximum # iterations   MaxIter         ....   125
 SCF integral mode      SCFMode         .... Direct
   Integral package                     .... LIBINT
 Reset frequeny         DirectResetFreq ....    20
 Integral Threshold     Thresh          ....  2.500e-11 Eh
 Primitive CutOff       TCut            ....  2.500e-12 Eh

Convergence Tolerance:
 Convergence Check Mode ConvCheckMode   .... Total+1el-Energy
 Convergence forced     ConvForced      .... 1
 Energy Change          TolE            ....  1.000e-08 Eh
 1-El. energy change                    ....  1.000e-05 Eh
 Orbital Gradient       TolG            ....  1.000e-05
 Orbital Rotation angle TolX            ....  1.000e-05
 DIIS Error             TolErr          ....  5.000e-07


Diagonalization of the overlap matrix:
Smallest eigenvalue                        ... 6.232e-06
Time for diagonalization                   ...    0.405 sec
Threshold for overlap eigenvalues          ... 1.000e-08
Number of eigenvalues below threshold      ... 0
Time for construction of square roots      ...    1.143 sec
Total time needed                          ...    1.556 sec

-------------------
DFT GRID GENERATION
-------------------

General Integration Accuracy     IntAcc      ...  5.010
Radial Grid Type                 RadialGrid  ... Gauss-Chebyshev
Angular Grid (max. acc.)         AngularGrid ... Lebedev-434
Angular grid pruning method      GridPruning ... 3 (G Style)
Weight generation scheme         WeightScheme... Becke
Basis function cutoff            BFCut       ...    1.0000e-11
Integration weight cutoff        WCut        ...    1.0000e-14
Grids for H and He will be reduced by one unit

# of grid points (after initial pruning)     ... 418318 (   0.0 sec)
# of grid points (after weights+screening)   ... 370674 (   0.9 sec)
nearest neighbour list constructed           ...    0.0 sec
Grid point re-assignment to atoms done       ...    0.2 sec
Grid point division into batches done        ...    4.6 sec
Reduced shell lists constructed in    5.3 sec

Total number of grid points                  ...   370674
Total number of batches                      ...     5816
Average number of points per batch           ...       63
Average number of grid points per atom       ...     8620
Average number of shells per batch           ...   128.66 (32.01%)
Average number of basis functions per batch  ...   335.33 (31.16%)
Average number of large shells per batch     ...    88.48 (68.76%)
Average number of large basis fcns per batch ...   229.39 (68.41%)
Maximum spatial batch extension              ...   9.38, 17.64, 23.58 au
Average spatial batch extension              ...   0.05,  0.06,  0.07 au

Time for grid setup =   10.944 sec

------------------------------
INITIAL GUESS: MODEL POTENTIAL
------------------------------
Loading Hartree-Fock densities                     ... done
Calculating cut-offs                               ... done
Setting up the integral package                    ... done
Initializing the effective Hamiltonian             ... done
Starting the Coulomb interaction                   ... done (   0.5 sec)
Reading the grid                                   ... done
Mapping shells                                     ... done
Starting the XC term evaluation                    ... done (   1.8 sec)
  promolecular density results
     # of electrons  =    239.994566669
     EX              =   -236.196446868
     EC              =     -8.402214950
     EX+EC           =   -244.598661818
Transforming the Hamiltonian                       ... done (   0.2 sec)
Diagonalizing the Hamiltonian                      ... done (   0.4 sec)
Back transforming the eigenvectors                 ... done (   0.1 sec)
Now organizing SCF variables                       ... done
                      ------------------
                      INITIAL GUESS DONE (  14.4 sec)
                      ------------------
--------------------
COSX GRID GENERATION
--------------------

General Integration Accuracy     IntAcc      ...  3.340
Radial Grid Type                 RadialGrid  ... Gauss-Chebyshev
Angular Grid (max. acc.)         AngularGrid ... Lebedev-50
Angular grid pruning method      GridPruning ... 3 (G Style)
Weight generation scheme         WeightScheme... Becke
Basis function cutoff            BFCut       ...    1.0000e-11
Integration weight cutoff        WCut        ...    1.0000e-14
Grids for H and He will be reduced by one unit

# of grid points (after initial pruning)     ...  22360 (   0.0 sec)
# of grid points (after weights+screening)   ...  20614 (   0.1 sec)
nearest neighbour list constructed           ...    0.0 sec
Grid point re-assignment to atoms done       ...    0.0 sec
Grid point division into batches done        ...    0.0 sec
Reduced shell lists constructed in    0.1 sec

Total number of grid points                  ...    20614
Total number of batches                      ...      345
Average number of points per batch           ...       59
Average number of grid points per atom       ...      479
Average number of shells per batch           ...   142.81 (35.53%)
Average number of basis functions per batch  ...   379.81 (35.30%)
Average number of large shells per batch     ...   100.62 (70.46%)
Average number of large basis fcns per batch ...   264.62 (69.67%)
Maximum spatial batch extension              ...   3.78, 14.31, 16.37 au
Average spatial batch extension              ...   0.10,  0.14,  0.24 au

Overlap Fitting                  UseSFitting ... on
Constructing numerical overlap ... done (      0.1 sec)
Inverting numerical overlap    ... done (      0.2 sec)
Obtaining analytic overlap     ... done (      0.0 sec)
Final contraction and storage  ... done (      1.2 sec)


General Integration Accuracy     IntAcc      ...  3.670
Radial Grid Type                 RadialGrid  ... Gauss-Chebyshev
Angular Grid (max. acc.)         AngularGrid ... Lebedev-50
Angular grid pruning method      GridPruning ... 3 (G Style)
Weight generation scheme         WeightScheme... Becke
Basis function cutoff            BFCut       ...    1.0000e-11
Integration weight cutoff        WCut        ...    1.0000e-14
Grids for H and He will be reduced by one unit

# of grid points (after initial pruning)     ...  27880 (   0.0 sec)
# of grid points (after weights+screening)   ...  25609 (   0.1 sec)
nearest neighbour list constructed           ...    0.0 sec
Grid point re-assignment to atoms done       ...    0.0 sec
Grid point division into batches done        ...    0.0 sec
Reduced shell lists constructed in    0.1 sec

Total number of grid points                  ...    25609
Total number of batches                      ...      421
Average number of points per batch           ...       60
Average number of grid points per atom       ...      596
Average number of shells per batch           ...   139.95 (34.81%)
Average number of basis functions per batch  ...   368.68 (34.26%)
Average number of large shells per batch     ...    97.84 (69.91%)
Average number of large basis fcns per batch ...   257.11 (69.74%)
Maximum spatial batch extension              ...   3.39,  5.66, 17.64 au
Average spatial batch extension              ...   0.08,  0.10,  0.18 au

Overlap Fitting                  UseSFitting ... on
Constructing numerical overlap ... done (      0.1 sec)
Inverting numerical overlap    ... done (      0.1 sec)
Obtaining analytic overlap     ... done (      0.0 sec)
Final contraction and storage  ... done (      1.2 sec)


General Integration Accuracy     IntAcc      ...  4.010
Radial Grid Type                 RadialGrid  ... Gauss-Chebyshev
Angular Grid (max. acc.)         AngularGrid ... Lebedev-110
Angular grid pruning method      GridPruning ... 3 (G Style)
Weight generation scheme         WeightScheme... Becke
Basis function cutoff            BFCut       ...    1.0000e-11
Integration weight cutoff        WCut        ...    1.0000e-14
Grids for H and He will be reduced by one unit

# of grid points (after initial pruning)     ...  54816 (   0.0 sec)
# of grid points (after weights+screening)   ...  49803 (   0.1 sec)
nearest neighbour list constructed           ...    0.0 sec
Grid point re-assignment to atoms done       ...    0.0 sec
Grid point division into batches done        ...    0.1 sec
Reduced shell lists constructed in    0.2 sec

Total number of grid points                  ...    49803
Total number of batches                      ...      798
Average number of points per batch           ...       62
Average number of grid points per atom       ...     1158
Average number of shells per batch           ...   140.43 (34.93%)
Average number of basis functions per batch  ...   371.74 (34.55%)
Average number of large shells per batch     ...    97.77 (69.62%)
Average number of large basis fcns per batch ...   257.09 (69.16%)
Maximum spatial batch extension              ...   4.12,  5.65, 17.80 au
Average spatial batch extension              ...   0.08,  0.10,  0.18 au

Overlap Fitting                  UseSFitting ... on
Constructing numerical overlap ... done (      0.2 sec)
Inverting numerical overlap    ... done (      0.2 sec)
Obtaining analytic overlap     ... done (      0.0 sec)
Final contraction and storage  ... done (      1.2 sec)

Time for X-Grid setup             =    6.663 sec
--------------
SCF ITERATIONS
--------------
ITER       Energy         Delta-E        Max-DP      RMS-DP      [F,P]     Damp
               ***  Starting incremental Fock matrix formation  ***
  0  -2422.1478908777   0.000000000000 0.20181839  0.00077877  0.1685357 0.7000
  1  -2422.4323008559  -0.284409978153 0.18870811  0.00067178  0.0946954 0.7000
                               ***Turning on DIIS***
  2  -2422.5652148118  -0.132913955906 0.28508439  0.00139607  0.0534523 0.0000
  3  -2422.7768869355  -0.211672123716 0.15737161  0.00044989  0.0519932 0.0000
  4  -2422.8193115675  -0.042424631999 0.02299796  0.00015139  0.0084468 0.0000
  5  -2422.8213269164  -0.002015348917 0.01349052  0.00006734  0.0053784 0.0000
                      *** Initiating the SOSCF procedure ***
                           *** Shutting down DIIS ***
                      *** Re-Reading the Fockian *** 
                      *** Removing any level shift *** 
ITER      Energy       Delta-E        Grad      Rot      Max-DP    RMS-DP
  6  -2422.82190678  -0.0005798682  0.002031  0.002031  0.006105  0.000036
               *** Restarting incremental Fock matrix formation ***
  7  -2422.82213863  -0.0002318462  0.001325  0.004346  0.038930  0.000195
  8  -2422.82224122  -0.0001025928  0.000602  0.005607  0.025987  0.000141
  9  -2422.82226937  -0.0000281487  0.000334  0.000801  0.023136  0.000123
 10  -2422.82228440  -0.0000150324  0.000095  0.000285  0.003753  0.000020
 11  -2422.82228505  -0.0000006455  0.000089  0.000161  0.002885  0.000015
 12  -2422.82228585  -0.0000007986  0.000021  0.000108  0.000449  0.000003
 13  -2422.82228587  -0.0000000250  0.000018  0.000036  0.000538  0.000003
 14  -2422.82228597  -0.0000000969  0.000007  0.000023  0.000206  0.000002
                  ***Gradient check signals convergence***
              ***Rediagonalizing the Fockian in SOSCF/NRSCF***

               *****************************************************
               *                     SUCCESS                       *
               *           SCF CONVERGED AFTER  15 CYCLES          *
               *****************************************************

Old exchange energy                            =    -72.559640571 Eh
New exchange energy                            =    -72.560574179 Eh
Exchange energy change after final integration =     -0.000933607 Eh
Total energy after final integration           =  -2422.823219631 Eh
Final COS-X integration done in                =    41.249 sec

----------------
TOTAL SCF ENERGY
----------------

Total Energy       :        -2422.82321963 Eh          -65928.37154 eV

Components:
Nuclear Repulsion  :         3190.88512168 Eh           86828.39843 eV
Electronic Energy  :        -5613.70834132 Eh         -152756.76997 eV
One Electron Energy:        -9663.32507462 Eh         -262952.44352 eV
Two Electron Energy:         4049.61673331 Eh          110195.67355 eV

Virial components:
Potential Energy   :        -4836.74720800 Eh         -131614.58269 eV
Kinetic Energy     :         2413.92398837 Eh           65686.21115 eV
Virial Ratio       :            2.00368662


DFT components:
N(Alpha)           :      119.999979757009 electrons
N(Beta)            :      119.999979757009 electrons
N(Total)           :      239.999959514018 electrons
E(XC)              :     -175.997164716662 Eh       

---------------
SCF CONVERGENCE
---------------

  Last Energy change         ...   -5.3266e-08  Tolerance :   1.0000e-08
  Last MAX-Density change    ...    2.8599e-14  Tolerance :   1.0000e-07
  Last RMS-Density change    ...    1.0188e-16  Tolerance :   5.0000e-09
  Last Orbital Gradient      ...    2.4330e-06  Tolerance :   1.0000e-05
  Last Orbital Rotation      ...    7.1441e-06  Tolerance :   1.0000e-05

             **** THE GBW FILE WAS UPDATED (total.gbw) ****
             **** DENSITY FILE WAS UPDATED (total.scfp.tmp) ****
             **** ENERGY FILE WAS UPDATED (total.en.tmp) ****
----------------
ORBITAL ENERGIES
----------------

  NO   OCC          E(Eh)            E(eV) 
   0   2.0000     -89.023463     -2422.4516 
   1   2.0000     -89.010203     -2422.0908 
   2   2.0000     -89.007526     -2422.0179 
   3   2.0000     -14.474081      -393.8598 
   4   2.0000     -14.472866      -393.8267 
   5   2.0000     -14.471199      -393.7813 
   6   2.0000     -14.464459      -393.5979 
   7   2.0000     -14.464184      -393.5904 
   8   2.0000     -14.460427      -393.4882 
   9   2.0000     -14.455335      -393.3496 
  10   2.0000     -10.382035      -282.5095 
  11   2.0000     -10.380106      -282.4570 
  12   2.0000     -10.379112      -282.4300 
  13   2.0000     -10.374731      -282.3108 
  14   2.0000     -10.352465      -281.7049 
  15   2.0000     -10.348295      -281.5914 
  16   2.0000     -10.347717      -281.5757 
  17   2.0000     -10.346928      -281.5542 
  18   2.0000     -10.345299      -281.5099 
  19   2.0000     -10.343385      -281.4578 
  20   2.0000     -10.335230      -281.2359 
  21   2.0000     -10.326539      -280.9994 
  22   2.0000     -10.321162      -280.8531 
  23   2.0000     -10.305583      -280.4292 
  24   2.0000     -10.299881      -280.2740 
  25   2.0000     -10.296536      -280.1830 
  26   2.0000     -10.295361      -280.1510 
  27   2.0000     -10.289427      -279.9895 
  28   2.0000     -10.284886      -279.8660 
  29   2.0000     -10.283932      -279.8400 
  30   2.0000     -10.277894      -279.6757 
  31   2.0000     -10.271258      -279.4951 
  32   2.0000      -8.118789      -220.9235 
  33   2.0000      -8.106516      -220.5895 
  34   2.0000      -8.103746      -220.5141 
  35   2.0000      -6.071693      -165.2192 
  36   2.0000      -6.067604      -165.1079 
  37   2.0000      -6.066787      -165.0857 
  38   2.0000      -6.059628      -164.8909 
  39   2.0000      -6.056839      -164.8150 
  40   2.0000      -6.055788      -164.7864 
  41   2.0000      -6.053466      -164.7232 
  42   2.0000      -6.052909      -164.7080 
  43   2.0000      -6.050830      -164.6515 
  44   2.0000      -1.157097       -31.4862 
  45   2.0000      -1.149085       -31.2682 
  46   2.0000      -1.110921       -30.2297 
  47   2.0000      -1.108421       -30.1617 
  48   2.0000      -1.039552       -28.2877 
  49   2.0000      -1.020663       -27.7736 
  50   2.0000      -0.994007       -27.0483 
  51   2.0000      -0.978045       -26.6140 
  52   2.0000      -0.964466       -26.2445 
  53   2.0000      -0.950374       -25.8610 
  54   2.0000      -0.935968       -25.4690 
  55   2.0000      -0.915932       -24.9238 
  56   2.0000      -0.902298       -24.5528 
  57   2.0000      -0.888905       -24.1883 
  58   2.0000      -0.875747       -23.8303 
  59   2.0000      -0.865517       -23.5519 
  60   2.0000      -0.847392       -23.0587 
  61   2.0000      -0.841739       -22.9049 
  62   2.0000      -0.795109       -21.6360 
  63   2.0000      -0.785934       -21.3864 
  64   2.0000      -0.774160       -21.0660 
  65   2.0000      -0.760103       -20.6835 
  66   2.0000      -0.736691       -20.0464 
  67   2.0000      -0.725040       -19.7293 
  68   2.0000      -0.722317       -19.6552 
  69   2.0000      -0.712881       -19.3985 
  70   2.0000      -0.691670       -18.8213 
  71   2.0000      -0.671031       -18.2597 
  72   2.0000      -0.664374       -18.0785 
  73   2.0000      -0.650114       -17.6905 
  74   2.0000      -0.641027       -17.4432 
  75   2.0000      -0.625453       -17.0194 
  76   2.0000      -0.617480       -16.8025 
  77   2.0000      -0.610786       -16.6203 
  78   2.0000      -0.609155       -16.5760 
  79   2.0000      -0.580110       -15.7856 
  80   2.0000      -0.576496       -15.6872 
  81   2.0000      -0.571946       -15.5634 
  82   2.0000      -0.563118       -15.3232 
  83   2.0000      -0.561798       -15.2873 
  84   2.0000      -0.552662       -15.0387 
  85   2.0000      -0.550181       -14.9712 
  86   2.0000      -0.548142       -14.9157 
  87   2.0000      -0.540333       -14.7032 
  88   2.0000      -0.538806       -14.6616 
  89   2.0000      -0.533860       -14.5271 
  90   2.0000      -0.529911       -14.4196 
  91   2.0000      -0.526013       -14.3135 
  92   2.0000      -0.519611       -14.1393 
  93   2.0000      -0.515319       -14.0225 
  94   2.0000      -0.507206       -13.8018 
  95   2.0000      -0.486533       -13.2392 
  96   2.0000      -0.477841       -13.0027 
  97   2.0000      -0.472286       -12.8516 
  98   2.0000      -0.471350       -12.8261 
  99   2.0000      -0.468768       -12.7558 
 100   2.0000      -0.455313       -12.3897 
 101   2.0000      -0.446612       -12.1529 
 102   2.0000      -0.444718       -12.1014 
 103   2.0000      -0.435713       -11.8563 
 104   2.0000      -0.430199       -11.7063 
 105   2.0000      -0.421667       -11.4741 
 106   2.0000      -0.419757       -11.4222 
 107   2.0000      -0.401823       -10.9342 
 108   2.0000      -0.401163       -10.9162 
 109   2.0000      -0.394279       -10.7289 
 110   2.0000      -0.384316       -10.4578 
 111   2.0000      -0.376081       -10.2337 
 112   2.0000      -0.371547       -10.1103 
 113   2.0000      -0.364862        -9.9284 
 114   2.0000      -0.361174        -9.8280 
 115   2.0000      -0.351033        -9.5521 
 116   2.0000      -0.339234        -9.2310 
 117   2.0000      -0.307031        -8.3547 
 118   2.0000      -0.299416        -8.1475 
 119   2.0000      -0.289928        -7.8894 
 120   0.0000      -0.055853        -1.5198 
 121   0.0000      -0.022906        -0.6233 
 122   0.0000       0.009981         0.2716 
 123   0.0000       0.036048         0.9809 
 124   0.0000       0.041310         1.1241 
 125   0.0000       0.051393         1.3985 
 126   0.0000       0.061891         1.6841 
 127   0.0000       0.071106         1.9349 
 128   0.0000       0.082750         2.2517 
 129   0.0000       0.094898         2.5823 
 130   0.0000       0.104015         2.8304 
 131   0.0000       0.108522         2.9530 
 132   0.0000       0.110634         3.0105 
 133   0.0000       0.116457         3.1690 
 134   0.0000       0.119394         3.2489 
 135   0.0000       0.125284         3.4092 
 136   0.0000       0.131584         3.5806 
 137   0.0000       0.135920         3.6986 
 138   0.0000       0.139923         3.8075 
 139   0.0000       0.141748         3.8571 
 140   0.0000       0.147393         4.0108 
 141   0.0000       0.151619         4.1258 
 142   0.0000       0.160379         4.3641 
 143   0.0000       0.165395         4.5006 
 144   0.0000       0.167996         4.5714 
 145   0.0000       0.173643         4.7251 
 146   0.0000       0.174895         4.7591 
 147   0.0000       0.184002         5.0070 
 148   0.0000       0.189357         5.1527 
 149   0.0000       0.196241         5.3400 
 150   0.0000       0.205503         5.5920 
 151   0.0000       0.207659         5.6507 
 152   0.0000       0.212017         5.7693 
 153   0.0000       0.215222         5.8565 
 154   0.0000       0.219690         5.9781 
 155   0.0000       0.226801         6.1716 
 156   0.0000       0.231411         6.2970 
 157   0.0000       0.236546         6.4367 
 158   0.0000       0.246960         6.7201 
 159   0.0000       0.249845         6.7986 
 160   0.0000       0.253780         6.9057 
 161   0.0000       0.255802         6.9607 
 162   0.0000       0.259016         7.0482 
 163   0.0000       0.263818         7.1789 
 164   0.0000       0.265994         7.2381 
 165   0.0000       0.267078         7.2676 
 166   0.0000       0.271722         7.3939 
 167   0.0000       0.277111         7.5406 
 168   0.0000       0.279760         7.6127 
 169   0.0000       0.284628         7.7451 
 170   0.0000       0.288652         7.8546 
 171   0.0000       0.289501         7.8777 
 172   0.0000       0.290787         7.9127 
 173   0.0000       0.294309         8.0086 
 174   0.0000       0.295615         8.0441 
 175   0.0000       0.298330         8.1180 
 176   0.0000       0.299745         8.1565 
 177   0.0000       0.301807         8.2126 
 178   0.0000       0.307334         8.3630 
 179   0.0000       0.312244         8.4966 
 180   0.0000       0.315750         8.5920 
 181   0.0000       0.319625         8.6974 
 182   0.0000       0.326043         8.8721 
 183   0.0000       0.328637         8.9427 
 184   0.0000       0.331333         9.0160 
 185   0.0000       0.333512         9.0753 
 186   0.0000       0.336034         9.1440 
 187   0.0000       0.342325         9.3151 
 188   0.0000       0.347498         9.4559 
 189   0.0000       0.350573         9.5396 
 190   0.0000       0.351510         9.5651 
 191   0.0000       0.355073         9.6620 
 192   0.0000       0.357614         9.7312 
 193   0.0000       0.360828         9.8186 
 194   0.0000       0.364479         9.9180 
 195   0.0000       0.368751        10.0342 
 196   0.0000       0.370752        10.0887 
 197   0.0000       0.378164        10.2904 
 198   0.0000       0.380049        10.3416 
 199   0.0000       0.381985        10.3943 
 200   0.0000       0.385755        10.4969 
 201   0.0000       0.388499        10.5716 
 202   0.0000       0.390146        10.6164 
 203   0.0000       0.395387        10.7590 
 204   0.0000       0.397477        10.8159 
 205   0.0000       0.399192        10.8626 
 206   0.0000       0.399509        10.8712 
 207   0.0000       0.403439        10.9781 
 208   0.0000       0.408377        11.1125 
 209   0.0000       0.410939        11.1822 
 210   0.0000       0.415994        11.3198 
 211   0.0000       0.420545        11.4436 
 212   0.0000       0.423408        11.5215 
 213   0.0000       0.427798        11.6410 
 214   0.0000       0.430443        11.7129 
 215   0.0000       0.431912        11.7529 
 216   0.0000       0.432838        11.7781 
 217   0.0000       0.435703        11.8561 
 218   0.0000       0.436626        11.8812 
 219   0.0000       0.441070        12.0021 
 220   0.0000       0.446337        12.1454 
 221   0.0000       0.449489        12.2312 
 222   0.0000       0.452943        12.3252 
 223   0.0000       0.456807        12.4303 
 224   0.0000       0.457396        12.4464 
 225   0.0000       0.462654        12.5895 
 226   0.0000       0.465269        12.6606 
 227   0.0000       0.469140        12.7659 
 228   0.0000       0.471564        12.8319 
 229   0.0000       0.477106        12.9827 
 230   0.0000       0.479358        13.0440 
 231   0.0000       0.480370        13.0715 
 232   0.0000       0.486034        13.2257 
 233   0.0000       0.488319        13.2878 
 234   0.0000       0.490788        13.3550 
 235   0.0000       0.495285        13.4774 
 236   0.0000       0.497751        13.5445 
 237   0.0000       0.502793        13.6817 
 238   0.0000       0.502991        13.6871 
 239   0.0000       0.503951        13.7132 
 240   0.0000       0.508769        13.8443 
 241   0.0000       0.510801        13.8996 
 242   0.0000       0.517624        14.0853 
 243   0.0000       0.521007        14.1773 
 244   0.0000       0.523559        14.2468 
 245   0.0000       0.527838        14.3632 
 246   0.0000       0.532822        14.4988 
 247   0.0000       0.536752        14.6058 
 248   0.0000       0.540317        14.7028 
 249   0.0000       0.542713        14.7680 
 250   0.0000       0.545229        14.8364 
 251   0.0000       0.545753        14.8507 
 252   0.0000       0.548769        14.9328 
 253   0.0000       0.550874        14.9900 
 254   0.0000       0.557186        15.1618 
 255   0.0000       0.560107        15.2413 
 256   0.0000       0.565496        15.3879 
 257   0.0000       0.567874        15.4526 
 258   0.0000       0.572176        15.5697 
 259   0.0000       0.578013        15.7285 
 260   0.0000       0.583368        15.8742 
 261   0.0000       0.583976        15.8908 
 262   0.0000       0.587391        15.9837 
 263   0.0000       0.590441        16.0667 
 264   0.0000       0.594861        16.1870 
 265   0.0000       0.599922        16.3247 
 266   0.0000       0.604496        16.4492 
 267   0.0000       0.608182        16.5495 
 268   0.0000       0.618370        16.8267 
 269   0.0000       0.625206        17.0127 
 270   0.0000       0.628512        17.1027 
 271   0.0000       0.636509        17.3203 
 272   0.0000       0.641409        17.4536 
 273   0.0000       0.645072        17.5533 
 274   0.0000       0.651133        17.7182 
 275   0.0000       0.652953        17.7678 
 276   0.0000       0.657538        17.8925 
 277   0.0000       0.660407        17.9706 
 278   0.0000       0.665722        18.1152 
 279   0.0000       0.674256        18.3474 
 280   0.0000       0.677288        18.4299 
 281   0.0000       0.678202        18.4548 
 282   0.0000       0.680668        18.5219 
 283   0.0000       0.686143        18.6709 
 284   0.0000       0.687315        18.7028 
 285   0.0000       0.689311        18.7571 
 286   0.0000       0.691676        18.8215 
 287   0.0000       0.694121        18.8880 
 288   0.0000       0.697016        18.9668 
 289   0.0000       0.704356        19.1665 
 290   0.0000       0.706606        19.2277 
 291   0.0000       0.710697        19.3390 
 292   0.0000       0.715164        19.4606 
 293   0.0000       0.718616        19.5545 
 294   0.0000       0.725346        19.7377 
 295   0.0000       0.729458        19.8496 
 296   0.0000       0.734932        19.9985 
 297   0.0000       0.739189        20.1144 
 298   0.0000       0.741523        20.1779 
 299   0.0000       0.744020        20.2458 
 300   0.0000       0.746563        20.3150 
 301   0.0000       0.749121        20.3846 
 302   0.0000       0.751291        20.4437 
 303   0.0000       0.753439        20.5021 
 304   0.0000       0.757143        20.6029 
 305   0.0000       0.759397        20.6642 
 306   0.0000       0.767142        20.8750 
 307   0.0000       0.770958        20.9788 
 308   0.0000       0.777418        21.1546 
 309   0.0000       0.779607        21.2142 
 310   0.0000       0.783418        21.3179 
 311   0.0000       0.787147        21.4193 
 312   0.0000       0.791961        21.5504 
 313   0.0000       0.793898        21.6031 
 314   0.0000       0.800407        21.7802 
 315   0.0000       0.801189        21.8015 
 316   0.0000       0.804019        21.8785 
 317   0.0000       0.809179        22.0189 
 318   0.0000       0.814658        22.1680 
 319   0.0000       0.819391        22.2968 
 320   0.0000       0.823146        22.3989 
 321   0.0000       0.828161        22.5354 
 322   0.0000       0.832220        22.6458 
 323   0.0000       0.840832        22.8802 
 324   0.0000       0.841837        22.9075 
 325   0.0000       0.851262        23.1640 
 326   0.0000       0.852577        23.1998 
 327   0.0000       0.856911        23.3177 
 328   0.0000       0.861743        23.4492 
 329   0.0000       0.869183        23.6517 
 330   0.0000       0.874355        23.7924 
 331   0.0000       0.876396        23.8479 
 332   0.0000       0.879298        23.9269 
 333   0.0000       0.888737        24.1838 
 334   0.0000       0.892645        24.2901 
 335   0.0000       0.894723        24.3467 
 336   0.0000       0.897989        24.4355 
 337   0.0000       0.902236        24.5511 
 338   0.0000       0.904459        24.6116 
 339   0.0000       0.912413        24.8280 
 340   0.0000       0.919859        25.0306 
 341   0.0000       0.925497        25.1840 
 342   0.0000       0.929708        25.2986 
 343   0.0000       0.932623        25.3780 
 344   0.0000       0.934764        25.4362 
 345   0.0000       0.938637        25.5416 
 346   0.0000       0.945777        25.7359 
 347   0.0000       0.949032        25.8245 
 348   0.0000       0.954249        25.9664 
 349   0.0000       0.959025        26.0964 
 350   0.0000       0.962763        26.1981 
 351   0.0000       0.964846        26.2548 
 352   0.0000       0.975557        26.5463 
 353   0.0000       0.984067        26.7778 
 354   0.0000       0.987576        26.8733 
 355   0.0000       0.990805        26.9612 
 356   0.0000       0.994677        27.0665 
 357   0.0000       1.001790        27.2601 
 358   0.0000       1.008095        27.4317 
 359   0.0000       1.019179        27.7333 
 360   0.0000       1.024654        27.8823 
 361   0.0000       1.030571        28.0433 
 362   0.0000       1.039838        28.2954 
 363   0.0000       1.043749        28.4019 
 364   0.0000       1.048367        28.5275 
 365   0.0000       1.058843        28.8126 
 366   0.0000       1.064937        28.9784 
 367   0.0000       1.070227        29.1224 
 368   0.0000       1.077276        29.3142 
 369   0.0000       1.083369        29.4800 
 370   0.0000       1.091119        29.6909 
 371   0.0000       1.097133        29.8545 
 372   0.0000       1.101843        29.9827 
 373   0.0000       1.107496        30.1365 
 374   0.0000       1.112138        30.2628 
 375   0.0000       1.116333        30.3770 
 376   0.0000       1.119073        30.4515 
 377   0.0000       1.133596        30.8467 
 378   0.0000       1.138488        30.9798 
 379   0.0000       1.141531        31.0626 
 380   0.0000       1.146856        31.2075 
 381   0.0000       1.161027        31.5932 
 382   0.0000       1.165718        31.7208 
 383   0.0000       1.170801        31.8591 
 384   0.0000       1.178566        32.0704 
 385   0.0000       1.181913        32.1615 
 386   0.0000       1.187476        32.3129 
 387   0.0000       1.194258        32.4974 
 388   0.0000       1.199114        32.6296 
 389   0.0000       1.209503        32.9122 
 390   0.0000       1.219700        33.1897 
 391   0.0000       1.226879        33.3851 
 392   0.0000       1.234002        33.5789 
 393   0.0000       1.245803        33.9000 
 394   0.0000       1.247770        33.9535 
 395   0.0000       1.253495        34.1093 
 396   0.0000       1.261193        34.3188 
 397   0.0000       1.267507        34.4906 
 398   0.0000       1.269990        34.5582 
 399   0.0000       1.281151        34.8619 
 400   0.0000       1.283605        34.9287 
 401   0.0000       1.285002        34.9667 
 402   0.0000       1.302461        35.4418 
 403   0.0000       1.306608        35.5546 
 404   0.0000       1.311902        35.6987 
 405   0.0000       1.319031        35.8927 
 406   0.0000       1.324628        36.0450 
 407   0.0000       1.330602        36.2075 
 408   0.0000       1.335997        36.3543 
 409   0.0000       1.341849        36.5136 
 410   0.0000       1.346213        36.6323 
 411   0.0000       1.351052        36.7640 
 412   0.0000       1.362822        37.0843 
 413   0.0000       1.368351        37.2347 
 414   0.0000       1.369555        37.2675 
 415   0.0000       1.374413        37.3997 
 416   0.0000       1.379689        37.5433 
 417   0.0000       1.385121        37.6911 
 418   0.0000       1.395303        37.9681 
 419   0.0000       1.395442        37.9719 
 420   0.0000       1.403796        38.1992 
 421   0.0000       1.410420        38.3795 
 422   0.0000       1.418151        38.5898 
 423   0.0000       1.424760        38.7697 
 424   0.0000       1.426952        38.8293 
 425   0.0000       1.433385        39.0044 
 426   0.0000       1.442387        39.2494 
 427   0.0000       1.452321        39.5197 
 428   0.0000       1.453017        39.5386 
 429   0.0000       1.462744        39.8033 
 430   0.0000       1.471829        40.0505 
 431   0.0000       1.472691        40.0740 
 432   0.0000       1.479893        40.2699 
 433   0.0000       1.485419        40.4203 
 434   0.0000       1.489154        40.5219 
 435   0.0000       1.498027        40.7634 
 436   0.0000       1.502106        40.8744 
 437   0.0000       1.504346        40.9353 
 438   0.0000       1.508423        41.0463 
 439   0.0000       1.511789        41.1379 
 440   0.0000       1.520257        41.3683 
 441   0.0000       1.526047        41.5258 
 442   0.0000       1.531007        41.6608 
 443   0.0000       1.539797        41.9000 
 444   0.0000       1.541197        41.9381 
 445   0.0000       1.548582        42.1390 
 446   0.0000       1.549002        42.1505 
 447   0.0000       1.553980        42.2860 
 448   0.0000       1.556836        42.3637 
 449   0.0000       1.563836        42.5542 
 450   0.0000       1.567885        42.6643 
 451   0.0000       1.568765        42.6883 
 452   0.0000       1.570264        42.7291 
 453   0.0000       1.570647        42.7395 
 454   0.0000       1.581274        43.0287 
 455   0.0000       1.587686        43.2031 
 456   0.0000       1.597964        43.4828 
 457   0.0000       1.604410        43.6582 
 458   0.0000       1.605507        43.6881 
 459   0.0000       1.608218        43.7618 
 460   0.0000       1.610559        43.8255 
 461   0.0000       1.612823        43.8871 
 462   0.0000       1.613673        43.9103 
 463   0.0000       1.616769        43.9945 
 464   0.0000       1.623394        44.1748 
 465   0.0000       1.627837        44.2957 
 466   0.0000       1.632431        44.4207 
 467   0.0000       1.636837        44.5406 
 468   0.0000       1.642262        44.6882 
 469   0.0000       1.647603        44.8336 
 470   0.0000       1.650585        44.9147 
 471   0.0000       1.651641        44.9434 
 472   0.0000       1.654575        45.0233 
 473   0.0000       1.664132        45.2833 
 474   0.0000       1.667434        45.3732 
 475   0.0000       1.672337        45.5066 
 476   0.0000       1.681420        45.7538 
 477   0.0000       1.686865        45.9019 
 478   0.0000       1.688273        45.9402 
 479   0.0000       1.692171        46.0463 
 480   0.0000       1.694281        46.1037 
 481   0.0000       1.699067        46.2340 
 482   0.0000       1.701557        46.3017 
 483   0.0000       1.705130        46.3989 
 484   0.0000       1.707020        46.4504 
 485   0.0000       1.715861        46.6910 
 486   0.0000       1.720421        46.8150 
 487   0.0000       1.726213        46.9727 
 488   0.0000       1.730403        47.0867 
 489   0.0000       1.732960        47.1562 
 490   0.0000       1.739097        47.3232 
 491   0.0000       1.743907        47.4541 
 492   0.0000       1.746252        47.5179 
 493   0.0000       1.750726        47.6397 
 494   0.0000       1.767398        48.0933 
 495   0.0000       1.773368        48.2558 
 496   0.0000       1.779735        48.4291 
 497   0.0000       1.781295        48.4715 
 498   0.0000       1.784824        48.5675 
 499   0.0000       1.792561        48.7781 
 500   0.0000       1.794283        48.8249 
 501   0.0000       1.801297        49.0158 
 502   0.0000       1.803909        49.0869 
 503   0.0000       1.807295        49.1790 
 504   0.0000       1.807761        49.1917 
 505   0.0000       1.810163        49.2570 
 506   0.0000       1.815937        49.4142 
 507   0.0000       1.818360        49.4801 
 508   0.0000       1.823632        49.6235 
 509   0.0000       1.827914        49.7401 
 510   0.0000       1.837224        49.9934 
 511   0.0000       1.842308        50.1318 
 512   0.0000       1.850324        50.3499 
 513   0.0000       1.851598        50.3846 
 514   0.0000       1.858288        50.5666 
 515   0.0000       1.865513        50.7632 
 516   0.0000       1.871548        50.9274 
 517   0.0000       1.872266        50.9470 
 518   0.0000       1.873851        50.9901 
 519   0.0000       1.881358        51.1944 
 520   0.0000       1.888671        51.3933 
 521   0.0000       1.891838        51.4795 
 522   0.0000       1.898662        51.6652 
 523   0.0000       1.906147        51.8689 
 524   0.0000       1.907846        51.9151 
 525   0.0000       1.918710        52.2108 
 526   0.0000       1.920747        52.2662 
 527   0.0000       1.922640        52.3177 
 528   0.0000       1.925263        52.3891 
 529   0.0000       1.928525        52.4778 
 530   0.0000       1.944183        52.9039 
 531   0.0000       1.947816        53.0028 
 532   0.0000       1.960424        53.3458 
 533   0.0000       1.963763        53.4367 
 534   0.0000       1.966477        53.5106 
 535   0.0000       1.970136        53.6101 
 536   0.0000       1.977870        53.8206 
 537   0.0000       1.980413        53.8898 
 538   0.0000       1.999610        54.4122 
 539   0.0000       2.006429        54.5977 
 540   0.0000       2.017068        54.8872 
 541   0.0000       2.020886        54.9911 
 542   0.0000       2.023032        55.0495 
 543   0.0000       2.031769        55.2872 
 544   0.0000       2.034827        55.3704 
 545   0.0000       2.039534        55.4985 
 546   0.0000       2.046936        55.7000 
 547   0.0000       2.049413        55.7674 
 548   0.0000       2.054186        55.8973 
 549   0.0000       2.066271        56.2261 
 550   0.0000       2.071504        56.3685 
 551   0.0000       2.090089        56.8742 
 552   0.0000       2.097554        57.0773 
 553   0.0000       2.099578        57.1324 
 554   0.0000       2.109853        57.4120 
 555   0.0000       2.111788        57.4647 
 556   0.0000       2.113800        57.5194 
 557   0.0000       2.125282        57.8319 
 558   0.0000       2.131106        57.9903 
 559   0.0000       2.132987        58.0415 
 560   0.0000       2.134474        58.0820 
 561   0.0000       2.145064        58.3702 
 562   0.0000       2.151875        58.5555 
 563   0.0000       2.152998        58.5860 
 564   0.0000       2.160766        58.7974 
 565   0.0000       2.171592        59.0920 
 566   0.0000       2.176517        59.2260 
 567   0.0000       2.182995        59.4023 
 568   0.0000       2.186494        59.4975 
 569   0.0000       2.192379        59.6577 
 570   0.0000       2.195182        59.7339 
 571   0.0000       2.200039        59.8661 
 572   0.0000       2.209375        60.1202 
 573   0.0000       2.210923        60.1623 
 574   0.0000       2.216006        60.3006 
 575   0.0000       2.233041        60.7641 
 576   0.0000       2.239835        60.9490 
 577   0.0000       2.245858        61.1129 
 578   0.0000       2.256292        61.3968 
 579   0.0000       2.262286        61.5599 
 580   0.0000       2.269097        61.7453 
 581   0.0000       2.279572        62.0303 
 582   0.0000       2.282331        62.1054 
 583   0.0000       2.291665        62.3594 
 584   0.0000       2.298795        62.5534 
 585   0.0000       2.299052        62.5604 
 586   0.0000       2.306572        62.7650 
 587   0.0000       2.311167        62.8900 
 588   0.0000       2.312667        62.9309 
 589   0.0000       2.324712        63.2586 
 590   0.0000       2.327342        63.3302 
 591   0.0000       2.335697        63.5575 
 592   0.0000       2.338989        63.6471 
 593   0.0000       2.344051        63.7849 
 594   0.0000       2.356198        64.1154 
 595   0.0000       2.359885        64.2157 
 596   0.0000       2.361612        64.2627 
 597   0.0000       2.367428        64.4210 
 598   0.0000       2.371140        64.5220 
 599   0.0000       2.382595        64.8337 
 600   0.0000       2.402164        65.3662 
 601   0.0000       2.416052        65.7441 
 602   0.0000       2.421669        65.8970 
 603   0.0000       2.428078        66.0714 
 604   0.0000       2.435239        66.2662 
 605   0.0000       2.436688        66.3056 
 606   0.0000       2.458366        66.8955 
 607   0.0000       2.462247        67.0012 
 608   0.0000       2.469826        67.2074 
 609   0.0000       2.494469        67.8780 
 610   0.0000       2.502774        68.1039 
 611   0.0000       2.510390        68.3112 
 612   0.0000       2.517442        68.5031 
 613   0.0000       2.526904        68.7605 
 614   0.0000       2.528393        68.8011 
 615   0.0000       2.537169        69.0399 
 616   0.0000       2.546802        69.3020 
 617   0.0000       2.552219        69.4494 
 618   0.0000       2.574262        70.0492 
 619   0.0000       2.579532        70.1926 
 620   0.0000       2.581049        70.2339 
 621   0.0000       2.589291        70.4582 
 622   0.0000       2.596570        70.6563 
 623   0.0000       2.601268        70.7841 
 624   0.0000       2.618332        71.2484 
 625   0.0000       2.620891        71.3181 
 626   0.0000       2.630278        71.5735 
 627   0.0000       2.634765        71.6956 
 628   0.0000       2.641487        71.8785 
 629   0.0000       2.649206        72.0886 
 630   0.0000       2.654002        72.2191 
 631   0.0000       2.661005        72.4096 
 632   0.0000       2.668275        72.6074 
 633   0.0000       2.674257        72.7702 
 634   0.0000       2.679482        72.9124 
 635   0.0000       2.691615        73.2426 
 636   0.0000       2.694360        73.3173 
 637   0.0000       2.702406        73.5362 
 638   0.0000       2.707070        73.6631 
 639   0.0000       2.711892        73.7943 
 640   0.0000       2.721139        74.0460 
 641   0.0000       2.725022        74.1516 
 642   0.0000       2.731120        74.3176 
 643   0.0000       2.734982        74.4226 
 644   0.0000       2.739315        74.5405 
 645   0.0000       2.742182        74.6186 
 646   0.0000       2.753616        74.9297 
 647   0.0000       2.756728        75.0144 
 648   0.0000       2.760749        75.1238 
 649   0.0000       2.769495        75.3618 
 650   0.0000       2.776166        75.5433 
 651   0.0000       2.779866        75.6440 
 652   0.0000       2.781250        75.6817 
 653   0.0000       2.784185        75.7615 
 654   0.0000       2.792778        75.9954 
 655   0.0000       2.794236        76.0350 
 656   0.0000       2.803845        76.2965 
 657   0.0000       2.808691        76.4284 
 658   0.0000       2.814991        76.5998 
 659   0.0000       2.818832        76.7043 
 660   0.0000       2.834111        77.1201 
 661   0.0000       2.841003        77.3076 
 662   0.0000       2.844147        77.3932 
 663   0.0000       2.849035        77.5262 
 664   0.0000       2.854300        77.6694 
 665   0.0000       2.866983        78.0146 
 666   0.0000       2.876167        78.2645 
 667   0.0000       2.878386        78.3249 
 668   0.0000       2.883269        78.4577 
 669   0.0000       2.887659        78.5772 
 670   0.0000       2.891760        78.6888 
 671   0.0000       2.897050        78.8327 
 672   0.0000       2.898028        78.8594 
 673   0.0000       2.903311        79.0031 
 674   0.0000       2.905233        79.0554 
 675   0.0000       2.908497        79.1442 
 676   0.0000       2.914194        79.2993 
 677   0.0000       2.915996        79.3483 
 678   0.0000       2.931707        79.7758 
 679   0.0000       2.940088        80.0039 
 680   0.0000       2.944128        80.1138 
 681   0.0000       2.947873        80.2157 
 682   0.0000       2.953770        80.3762 
 683   0.0000       2.954736        80.4025 
 684   0.0000       2.962450        80.6124 
 685   0.0000       2.974971        80.9531 
 686   0.0000       2.979549        81.0777 
 687   0.0000       2.983823        81.1940 
 688   0.0000       2.990024        81.3627 
 689   0.0000       2.993302        81.4519 
 690   0.0000       3.005314        81.7787 
 691   0.0000       3.007921        81.8497 
 692   0.0000       3.012660        81.9787 
 693   0.0000       3.015437        82.0542 
 694   0.0000       3.024257        82.2942 
 695   0.0000       3.040178        82.7275 
 696   0.0000       3.044896        82.8558 
 697   0.0000       3.050549        83.0097 
 698   0.0000       3.053365        83.0863 
 699   0.0000       3.055397        83.1416 
 700   0.0000       3.058052        83.2138 
 701   0.0000       3.061504        83.3077 
 702   0.0000       3.070373        83.5491 
 703   0.0000       3.072359        83.6031 
 704   0.0000       3.080608        83.8276 
 705   0.0000       3.087766        84.0224 
 706   0.0000       3.090414        84.0944 
 707   0.0000       3.094082        84.1943 
 708   0.0000       3.100808        84.3773 
 709   0.0000       3.106829        84.5411 
 710   0.0000       3.115492        84.7769 
 711   0.0000       3.121560        84.9420 
 712   0.0000       3.125601        85.0519 
 713   0.0000       3.130469        85.1844 
 714   0.0000       3.136871        85.3586 
 715   0.0000       3.143082        85.5276 
 716   0.0000       3.150512        85.7298 
 717   0.0000       3.153263        85.8046 
 718   0.0000       3.154873        85.8485 
 719   0.0000       3.157128        85.9098 
 720   0.0000       3.163430        86.0813 
 721   0.0000       3.168811        86.2277 
 722   0.0000       3.172774        86.3356 
 723   0.0000       3.182494        86.6001 
 724   0.0000       3.189676        86.7955 
 725   0.0000       3.190640        86.8217 
 726   0.0000       3.194121        86.9165 
 727   0.0000       3.196131        86.9711 
 728   0.0000       3.197922        87.0199 
 729   0.0000       3.215968        87.5109 
 730   0.0000       3.222510        87.6890 
 731   0.0000       3.228795        87.8600 
 732   0.0000       3.237415        88.0945 
 733   0.0000       3.240760        88.1856 
 734   0.0000       3.241201        88.1976 
 735   0.0000       3.245211        88.3067 
[...]
 150   8.714     142.3   0.016145   0.012819   5.675790   4.539051     0.06 (  62->  80)    0.06 (  68->  75)    0.03 (  62->  75)
 151   8.721     142.2   0.003525   0.003480  -4.985630  -3.527720     0.08 (  67->  84)    0.06 (  70->  78)    0.03 (  67->  93)
 152   8.746     141.8   0.006459   0.005151  -3.741861  -3.620729     0.07 (  67->  84)    0.04 (  70->  78)    0.03 (  69->  78)
 153   8.759     141.5   0.014751   0.015302  14.726844  14.338836     0.03 (  61->  79)    0.03 (  61->  77)    0.03 (  59->  74)
 154   8.772     141.3   0.005173   0.004831   9.600743   8.782292     0.05 (  67->  98)    0.04 (  70-> 100)    0.04 (  63->  78)
 155   8.783     141.2   0.060602   0.056411  38.663663  37.577598     0.16 (  70->  99)    0.04 (  68->  96)    0.04 (  69-> 100)
 156   8.786     141.1   0.004146   0.003838  16.503431  14.767179     0.05 (  70-> 100)    0.03 (  69->  94)    0.02 (  67->  87)
 157   8.797     140.9   0.024277   0.023516  23.013294  22.734660     0.07 (  67->  98)    0.03 (  61->  77)    0.03 (  62->  77)
 158   8.803     140.8   0.021936   0.019211  10.187823   8.638600     0.07 (  67->  98)    0.04 (  70-> 100)    0.03 (  70->  78)
 159   8.819     140.6   0.016017   0.015208  -7.200486  -6.224079     0.04 (  60->  79)    0.04 (  65->  90)    0.03 (  65->  94)
 160   8.826     140.5   0.018030   0.016075  -13.771023  -14.630654     0.05 (  67->  98)    0.04 (  69->  78)    0.03 (  54->  72)
 161   8.843     140.2   0.002735   0.002410  12.135847  11.052479     0.08 (  63->  87)    0.07 (  64->  87)    0.06 (  63->  78)
 162   8.857     140.0   0.003827   0.003638  -8.173489  -7.764468     0.06 (  66->  93)    0.05 (  66->  91)    0.03 (  66->  89)
 163   8.867     139.8   0.018882   0.016854  -12.456820  -12.191847     0.22 (  67->  98)    0.08 (  69->  78)    0.03 (  56->  91)
 164   8.870     139.8   0.054672   0.048045  -44.182167  -36.906484     0.06 (  67->  84)    0.04 (  36->  72)    0.03 (  54->  72)
 165   8.878     139.6   0.003229   0.002879   9.539265   9.289050     0.16 (  66->  93)    0.08 (  66->  91)    0.06 (  66->  92)
 166   8.891     139.5   0.024083   0.021334  40.095607  37.618245     0.07 (  62->  83)    0.06 (  65->  83)    0.02 (  62->  79)
 167   8.903     139.3   0.000995   0.001069   0.179752  -0.016561     0.09 (  71->  84)    0.07 (  65->  84)    0.06 (  68->  84)
 168   8.913     139.1   0.026235   0.020998  28.993330  23.689927     0.03 (  60->  79)    0.02 (  65->  82)    0.02 (  61->  75)
 169   8.929     138.9   0.008383   0.008087   1.361124   1.297684     0.04 (  54->  72)    0.04 (  59->  76)    0.03 (  58->  76)
 170   8.939     138.7   0.009257   0.008735  -6.294377  -4.312519     0.07 (  54->  72)    0.05 (  35->  72)    0.03 (  69->  78)
 171   8.961     138.4   0.005327   0.004568  12.841596  11.323405     0.04 (  69->  80)    0.03 (  64->  85)    0.03 (  63->  85)
 172   8.974     138.2   0.012024   0.010384  -5.595331  -5.827805     0.04 (  59->  76)    0.03 (  58->  76)    0.03 (  64->  87)
 173   8.993     137.9   0.011559   0.010009   9.115836  10.031987     0.08 (  56->  73)    0.05 (  67->  75)    0.03 (  67-> 103)
 174   8.997     137.8   0.000522   0.000285  -3.422661  -3.151267     0.06 (  69-> 100)    0.04 (  70-> 101)    0.04 (  70-> 100)
 175   9.003     137.7   0.015563   0.012182  14.539157  12.492422     0.04 (  70->  82)    0.03 (  71->  87)    0.02 (  67->  93)
 176   9.026     137.4   0.016591   0.014307   6.379511   8.001061     0.08 (  69->  99)    0.05 (  69->  88)    0.04 (  68->  88)
 177   9.033     137.3   0.002513   0.001576   0.320300   0.851697     0.05 (  56->  76)    0.05 (  62->  81)    0.03 (  67->  84)
 178   9.039     137.2   0.070577   0.063776  12.694374  10.912728     0.03 (  66->  87)    0.02 (  70-> 101)    0.02 (  57->  74)
 179   9.048     137.0   0.015352   0.013565  -38.703977  -37.241775     0.04 (  38->  72)    0.03 (  66->  75)    0.03 (  55->  72)
 180   9.060     136.8   0.032098   0.029607  71.846221  67.841831     0.07 (  53->  72)    0.04 (  55->  72)    0.02 (  66->  75)
 181   9.072     136.7   0.019193   0.018044  25.795803  25.538290     0.05 (  53->  72)    0.03 (  66->  75)    0.02 (  66->  74)
 182   9.088     136.4   0.004941   0.004341  -11.698483  -10.528101     0.04 (  36->  72)    0.03 (  56->  73)    0.03 (  37->  72)
 183   9.093     136.3   0.002574   0.002842  -18.360388  -20.726393     0.05 (  36->  72)    0.05 (  70->  94)    0.03 (  70-> 101)
 184   9.107     136.1   0.007986   0.006986  -36.988564  -35.256662     0.19 (  66->  91)    0.17 (  66->  89)    0.03 (  66->  84)
 185   9.108     136.1   0.005361   0.005918  -33.865237  -33.313986     0.04 (  56->  76)    0.03 (  62->  81)    0.02 (  68->  87)
 186   9.113     136.1   0.006303   0.004900  -16.327917  -14.743716     0.08 (  66->  89)    0.07 (  66->  91)    0.03 (  70-> 101)
 187   9.121     135.9   0.022745   0.018859  25.440832  22.697929     0.03 (  66->  89)    0.03 (  69->  80)    0.03 (  66->  91)
 188   9.138     135.7   0.016254   0.014464   0.525236   0.431842     0.05 (  55->  72)    0.04 (  54->  72)    0.04 (  55->  80)
 189   9.153     135.5   0.122083   0.112422  -20.682033  -20.431041     0.15 (  56->  76)    0.08 (  63->  84)    0.06 (  64->  84)
 190   9.182     135.0   0.002287   0.002064   9.758071   9.474733     0.11 (  51->  77)    0.10 (  53->  72)    0.06 (  51->  75)
 191   9.194     134.9   0.021505   0.020106  18.055400  18.782168     0.03 (  68->  87)    0.03 (  53->  80)    0.03 (  70-> 104)
 192   9.200     134.8   0.004682   0.004268  -1.536298  -0.585724     0.16 (  53->  80)    0.07 (  53->  77)    0.05 (  53->  72)
 193   9.218     134.5   0.005441   0.004833   8.634406   7.616533     0.04 (  71-> 101)    0.04 (  71->  86)    0.03 (  61->  79)
 194   9.234     134.3   0.009452   0.008138  -12.768162  -11.894713     0.15 (  56->  73)    0.07 (  53->  80)    0.05 (  56->  75)
 195   9.238     134.2   0.051012   0.046067  -68.574218  -65.031936     0.05 (  35->  72)    0.04 (  56->  73)    0.02 (  40->  73)
 196   9.244     134.1   0.005448   0.005009  -8.737201  -8.538935     0.04 (  58->  74)    0.03 (  66->  93)    0.03 (  59->  79)
 197   9.249     134.1   0.014960   0.013823  -4.982903  -5.435763     0.14 (  66->  93)    0.08 (  66->  94)    0.06 (  66->  91)
 198   9.271     133.7   0.006755   0.006151   4.273816   4.481961     0.04 (  69-> 101)    0.02 (  70-> 104)    0.02 (  66->  93)
 199   9.289     133.5   0.018705   0.016998  -21.334672  -20.265232     0.06 (  57->  74)    0.03 (  62->  79)    0.03 (  59->  73)
 200   9.299     133.3   0.002143   0.002232   0.993639   0.654884     0.08 (  68->  88)    0.07 (  69-> 102)    0.04 (  70-> 105)
 201   9.322     133.0   0.052099   0.050570   7.541774   7.213842     0.07 (  52->  78)    0.03 (  68->  78)    0.03 (  60->  78)
 202   9.325     133.0   0.002507   0.001756  -8.992098  -6.970630     0.07 (  62->  79)    0.04 (  52->  78)    0.03 (  62->  81)
 203   9.337     132.8   0.027926   0.025532  -9.197160  -8.791331     0.04 (  65->  76)    0.03 (  68->  76)    0.03 (  61->  76)
 204   9.347     132.6   0.059687   0.050680  37.442932  34.006202     0.04 (  54->  77)    0.03 (  62->  75)    0.02 (  61->  90)
 205   9.363     132.4   0.030513   0.025763  -2.970173  -3.017568     0.11 (  56->  76)    0.05 (  50->  76)    0.04 (  67->  93)
 206   9.369     132.3   0.009179   0.006650  -17.596973  -15.099853     0.08 (  56->  76)    0.04 (  67->  93)    0.04 (  69-> 102)
 207   9.375     132.3   0.030177   0.024492  -65.064392  -56.567732     0.06 (  50->  76)    0.04 (  48->  77)    0.03 (  58->  79)
 208   9.392     132.0   0.067120   0.063781  12.886470   6.307783     0.04 (  56->  76)    0.03 (  67->  93)    0.02 (  62->  79)
 209   9.396     132.0   0.026873   0.025917  13.568103  14.919605     0.10 (  67->  77)    0.04 (  64->  81)    0.03 (  65->  80)
 210   9.421     131.6   0.009843   0.008972  18.512912  17.146322     0.03 (  64->  80)    0.03 (  63->  81)    0.03 (  55->  80)
 211   9.433     131.4   0.120250   0.096578  15.777798  13.294169     0.18 (  50->  76)    0.05 (  60->  78)    0.04 (  49->  76)
 212   9.437     131.4   0.071732   0.062067  -3.018241  -4.175015     0.09 (  67->  77)    0.03 (  68->  88)    0.03 (  50->  76)
 213   9.445     131.3   0.040325   0.034266   9.819249   8.000044     0.06 (  46->  74)    0.05 (  45->  73)    0.04 (  46->  75)
 214   9.448     131.2   0.026664   0.024946   3.200116   5.135462     0.05 (  67->  77)    0.04 (  67->  79)    0.03 (  69->  98)
 215   9.458     131.1   0.023905   0.023777   5.900190   7.171626     0.04 (  54->  73)    0.03 (  47->  73)    0.03 (  60->  78)
 216   9.470     130.9   0.033619   0.031887  -20.839530  -20.263271     0.04 (  61->  81)    0.03 (  67->  79)    0.02 (  61->  80)
 217   9.489     130.7   0.002920   0.002616   0.523586   0.415634     0.16 (  69->  98)    0.07 (  70->  98)    0.05 (  66->  91)
 218   9.497     130.6   0.007660   0.007979  -1.359639  -1.333521     0.05 (  69-> 102)    0.04 (  69->  98)    0.03 (  69-> 105)
 219   9.519     130.2   0.016495   0.013623  41.448724  37.851861     0.06 (  53->  80)    0.04 (  69->  81)    0.02 (  44->  73)
 220   9.533     130.1   0.004329   0.003154  -10.325076  -8.679159     0.05 (  68->  90)    0.03 (  71->  84)    0.02 (  71-> 106)
 221   9.537     130.0   0.042589   0.034640  -6.132435  -6.299148     0.05 (  71->  84)    0.03 (  49->  77)    0.02 (  54->  80)
 222   9.552     129.8   0.003749   0.003103  10.313383   8.732952     0.07 (  60->  84)    0.06 (  53->  80)    0.06 (  71->  84)
 223   9.562     129.7   0.051627   0.043509  18.691217  17.888767     0.05 (  53->  80)    0.03 (  71->  84)    0.02 (  71-> 106)
 224   9.578     129.4   0.047090   0.040725  -6.752387  -7.724149     0.03 (  54->  73)    0.03 (  62->  75)    0.03 (  54->  75)
 225   9.578     129.4   0.011891   0.009521  -20.374130  -17.826698     0.17 (  71->  84)    0.06 (  71->  85)    0.05 (  70->  84)
 226   9.588     129.3   0.009064   0.008770   9.126386   8.140093     0.06 (  60->  78)    0.06 (  52->  78)    0.05 (  47->  74)
 227   9.596     129.2   0.019195   0.016102   4.670076   3.818707     0.04 (  61->  87)    0.03 (  61->  75)    0.02 (  70-> 105)
 228   9.609     129.0   0.032687   0.027278  -7.071492  -4.773303     0.07 (  67->  89)    0.04 (  63->  84)    0.03 (  67->  94)
 229   9.619     128.9   0.032479   0.028396  26.296232  23.489527     0.10 (  60->  78)    0.05 (  52->  78)    0.05 (  61->  78)
 230   9.635     128.7   0.010266   0.008620   0.066400  -0.374580     0.04 (  71-> 105)    0.03 (  60->  85)    0.03 (  62->  79)
 231   9.645     128.5   0.016830   0.014621  -18.521000  -17.758868     0.04 (  55->  73)    0.04 (  55->  77)    0.04 (  51->  72)
 232   9.666     128.3   0.000488   0.000426   3.013949   3.158240     0.04 (  61->  85)    0.03 (  60->  85)    0.03 (  57->  79)
 233   9.671     128.2   0.006425   0.004517  -27.978250  -24.838649     0.04 (  50->  78)    0.04 (  51->  72)    0.03 (  41->  72)
 234   9.678     128.1   0.017756   0.014896   3.606241   3.351202     0.04 (  71-> 107)    0.03 (  50->  78)    0.02 (  68->  90)
 235   9.692     127.9   0.003181   0.002432   7.488979   6.674717     0.05 (  51->  72)    0.04 (  64->  82)    0.03 (  55->  73)
 236   9.704     127.8   0.000749   0.000536  -1.431003  -0.874922     0.04 (  52->  73)    0.04 (  58->  75)    0.03 (  54->  72)
 237   9.720     127.6   0.004606   0.003176  16.725350  12.378417     0.07 (  52->  76)    0.04 (  51->  72)    0.02 (  67->  87)
 238   9.722     127.5   0.014899   0.013250  19.575240  16.809645     0.11 (  52->  76)    0.06 (  71-> 106)    0.03 (  49->  72)
 239   9.730     127.4   0.022944   0.019584  -14.749482  -12.924912     0.16 (  52->  76)    0.07 (  70->  84)    0.06 (  71-> 106)
 240   9.738     127.3   0.002898   0.002728  -5.287955  -5.175755     0.04 (  51->  72)    0.03 (  66->  77)    0.02 (  53->  72)
 241   9.743     127.3   0.005788   0.004830  16.044208  14.014227     0.12 (  52->  76)    0.08 (  66->  77)    0.02 (  69->  84)
 242   9.749     127.2   0.018209   0.015858  -2.921269  -1.192070     0.04 (  66->  77)    0.03 (  51->  72)    0.02 (  52->  75)
 243   9.758     127.1   0.028788   0.027836  20.487207  21.839074     0.04 (  51->  72)    0.03 (  59->  77)    0.03 (  70->  84)
 244   9.762     127.0   0.008568   0.007724  -27.176608  -25.625770     0.13 (  66->  77)    0.04 (  52->  73)    0.03 (  52->  75)
 245   9.773     126.9   0.022081   0.018760  -0.491483  -0.381143     0.13 (  66->  77)    0.07 (  71->  87)    0.04 (  52->  73)
 246   9.781     126.8   0.062071   0.052589  11.461586   9.869658     0.04 (  52->  73)    0.03 (  52->  75)    0.03 (  61->  94)
 247   9.801     126.5   0.018139   0.015080  11.148611  11.684048     0.04 (  69->  86)    0.03 (  69->  84)    0.03 (  70->  84)
 248   9.802     126.5   0.002735   0.002738  -4.071221  -4.345260     0.08 (  68->  96)    0.04 (  70->  84)    0.04 (  70->  85)
 249   9.820     126.3   0.008717   0.007692  22.330000  21.232841     0.03 (  68->  96)    0.02 (  71-> 105)    0.02 (  52->  73)
 250   9.823     126.2   0.012055   0.010423   6.583075   6.855897     0.06 (  69->  83)    0.06 (  70->  84)    0.02 (  69-> 103)
 251   9.840     126.0   0.022628   0.021860  111.904124  109.605992     0.15 (  50->  78)    0.04 (  67->  77)    0.04 (  67-> 103)
 252   9.849     125.9   0.019878   0.018750  -10.104671  -8.880555     0.14 (  68->  78)    0.08 (  65->  78)    0.04 (  59->  90)
 253   9.854     125.8   0.027302   0.024454  -32.983444  -30.804757     0.07 (  71-> 106)    0.06 (  70-> 106)    0.04 (  70->  87)
 254   9.861     125.7   0.014399   0.012572  -17.856396  -16.965279     0.07 (  68->  78)    0.06 (  63->  77)    0.05 (  67->  77)
 255   9.869     125.6   0.029984   0.025869  -49.196210  -49.400468     0.10 (  50->  78)    0.09 (  68->  78)    0.08 (  70-> 106)
 256   9.872     125.6   0.005311   0.003815   6.045214   6.213292     0.06 (  69-> 106)    0.04 (  70-> 106)    0.04 (  44->  74)
 257   9.892     125.3   0.004056   0.003859  -5.807217  -4.377918     0.13 (  69-> 103)    0.04 (  70-> 103)    0.03 (  71->  87)
 258   9.898     125.3   0.001226   0.000637  -7.447910  -6.180518     0.05 (  70-> 106)    0.03 (  50->  78)    0.03 (  67->  77)
 259   9.909     125.1   0.009761   0.009465   6.777730   4.641488     0.06 (  69->  83)    0.03 (  71->  83)    0.02 (  62->  83)
 260   9.913     125.1   0.005008   0.004983  -27.305121  -26.185986     0.06 (  70-> 107)    0.04 (  69-> 109)    0.03 (  49->  72)
 261   9.916     125.0   0.000561   0.000438  -2.908200  -2.148905     0.06 (  45->  74)    0.05 (  59->  78)    0.03 (  69->  83)
 262   9.925     124.9   0.016470   0.013795   2.079600   2.101244     0.05 (  71->  89)    0.03 (  60->  89)    0.03 (  70->  87)
 263   9.939     124.7   0.010116   0.008766  -5.179295  -5.041719     0.04 (  71->  86)    0.04 (  69->  83)    0.04 (  70-> 106)
 264   9.946     124.7   0.033487   0.027348  27.801254  25.120202     0.03 (  69-> 106)    0.03 (  59->  78)    0.02 (  67-> 103)
 265   9.957     124.5   0.006474   0.005573  -23.445845  -23.809374     0.05 (  67-> 103)    0.04 (  67->  79)    0.03 (  59->  78)
 266   9.970     124.4   0.005694   0.005728  22.571689  23.376970     0.03 (  67->  79)    0.03 (  59->  75)    0.03 (  59->  80)
 267   9.979     124.2   0.007427   0.007448  16.214222  16.548697     0.04 (  67-> 103)    0.03 (  59->  78)    0.02 (  58->  87)
 268   9.993     124.1   0.000957   0.000876  -2.281736  -1.485196     0.07 (  60->  87)    0.06 (  61->  87)    0.04 (  70->  87)

sTD-DFT done

Total run time:       45.456 sec

           *** ORCA-CIS/TD-DFT FINISHED WITHOUT ERROR ***


-------------------------------------------------------------------------------
                          DFT DISPERSION CORRECTION                            
                                                                               
                              DFTD3 V3.1  Rev 1                                
                              USING zero damping                               
-------------------------------------------------------------------------------
The omegaB97X-D3 functional is recognized. Fit by Chai et al.
Active option DFTDOPT                   ...         3   

molecular C6(AA) [au] = 36822.232201 


            DFT-D V3
 parameters
 s6 scaling factor         :     1.0000 
 rs6 scaling factor        :     1.2810 
 s8 scaling factor         :     1.0000 
 rs8 scaling factor        :     1.0940 
 Damping factor alpha6     :    14.0000 
 Damping factor alpha8     :    16.0000 
 ad hoc parameters k1-k3   :    16.0000     1.3333    -4.0000 

 Edisp/kcal,au: -12.042582995955  -0.019191075528 
 E6   /kcal   :  -5.550343625 
 E8   /kcal   :  -6.492239371 
 % E8         :  53.910688204 

-------------------------   ----------------
Dispersion correction           -0.019191076
-------------------------   ----------------


-------------------------   --------------------
FINAL SINGLE POINT ENERGY     -2422.842410556997
-------------------------   --------------------


                            ***************************************
                            *     ORCA property calculations      *
                            ***************************************

                                    ---------------------
                                    Active property flags
                                    ---------------------
   (+) Dipole Moment
   (+) Quadrupole Moment


------------------------------------------------------------------------------
                       ORCA ELECTRIC PROPERTIES CALCULATION
------------------------------------------------------------------------------

Dipole Moment Calculation                       ... on
Quadrupole Moment Calculation                   ... on
Polarizability Calculation                      ... off
GBWName                                         ... total_job2.gbw
Electron density file                           ... total_job2.scfp.tmp

-------------
DIPOLE MOMENT
-------------
                                X             Y             Z
Electronic contribution:     21.95436      -1.97835      -2.99292
Nuclear contribution   :    -22.44211       2.18503       3.11336
                        -----------------------------------------
Total Dipole Moment    :     -0.48776       0.20668       0.12044
                        -----------------------------------------
Magnitude (a.u.)       :      0.54326
Magnitude (Debye)      :      1.38085


------------------------
QUADRUPOLE MOMENT (A.U.)
------------------------

                XX           YY           ZZ           XY           XZ           YZ
  NUC     23627.45267   2824.56669    186.35401  -2364.38142   -340.32837    157.12547
  EL     -23726.57038  -2962.17385   -341.07004   2350.64654    337.51313   -156.97848
  TOT       -99.11770   -137.60717   -154.71603    -13.73488     -2.81524      0.14699

--------------------------------------------------------------------------
[[48712,1],4]: A high-performance Open MPI point-to-point messaging module
was unable to find any relevant network interfaces:

Module: OpenFabrics (openib)
  Host: cx1-136-17-1

Another transport will be used instead, although this may result in
lower performance.
--------------------------------------------------------------------------

Timings for individual modules:

Sum of individual times         ...      218.459 sec (=   3.641 min)
GTO integral calculation        ...       11.113 sec (=   0.185 min)   5.1 %
SCF iterations                  ...      158.520 sec (=   2.642 min)  72.6 %
CIS module                      ...       48.827 sec (=   0.814 min)  22.4 %



                             ****ORCA TERMINATED NORMALLY****
TOTAL RUN TIME: 0 days 0 hours 14 minutes 1 seconds 36 msec
