   42
Geometry Step: 918
    C     -4.33732965     -2.86105071      0.20113510      4.11512672
    C     -3.63571234     -1.66564130      0.06943791      4.08027159
    C     -4.35275859     -0.46290943     -0.07873006      4.03049918
    C     -5.77494607     -0.51859766     -0.07678367      3.86710069
    C     -6.48440439     -1.72285770      0.04872988      4.16472031
    C     -5.74301026     -2.89337828      0.18654190      4.06698649
    C     -3.99338030      0.94036979     -0.21146968      4.04179059
    C     -5.22537068      1.65837443     -0.26303321      3.86854424
    N     -6.27784265      0.76486198     -0.19859989      5.17452478
    C     -5.29561722      3.05688598     -0.34258829      4.15905342
    C     -4.09215339      3.75888683     -0.35456386      4.07249209
    C     -2.86660549      3.08357391     -0.30302611      4.13512760
    C     -2.77825946      1.67889965     -0.24963670      3.97783856
    H     -1.94761616      3.66470806     -0.33076643      0.91529764
    H     -7.25910814      1.01485940     -0.20349355      0.78409668
    H     -4.10012015      4.84367374     -0.40789857      0.91629898
    H     -2.54972741     -1.66804622      0.07822174      0.89696063
    H     -7.57097419     -1.73840582      0.04354727      0.91801145
    H     -6.25736227     -3.84548424      0.28660773      0.92173795
    H     -3.78847734     -3.79190984      0.31460962      0.91945666
    S      3.24160525     -1.08879360     -0.39828789      6.03697947
    C      2.33618523      0.36161639      0.06236670      3.82803058
    N      3.09611765      1.31474960      0.58853314      5.17673167
    N      4.41487255      0.97748451      0.66365634      5.16418642
    C      4.68402040     -0.23642599      0.19753415      3.82262778
    C      0.90835480      0.47779079     -0.12310576      3.83795126
    N      0.15594338     -0.47726474     -0.65489995      5.17957567
    N     -1.16695158     -0.14380248     -0.73023193      5.18343733
    C     -1.44865258      1.06095598     -0.25562451      3.80578485
    S     -0.00523465      1.91948524      0.33744295      6.03500525
    N      9.34282253      0.16964655      1.13569474      5.13762149
    C      8.45311095     -0.70236880      0.62230370      3.92238928
    C      7.16372023     -0.09133050      0.66697083      3.87851178
    N      7.30213152      1.13215562      1.20447070      5.12627008
    O      8.62127561      1.26025012      1.47563812      5.90992318
    C      6.02151743     -0.81044720      0.17632350      4.03589291
    C      6.29155303     -2.08553500     -0.31561030      3.94199870
    N      7.53323455     -2.67258324     -0.35797897      5.27394593
    C      8.59797541     -2.02112911      0.09143610      3.90627165
    H      5.46707993     -2.69171612     -0.70648021      0.93013275
    H     -6.25163869      3.57122619     -0.38231726      0.91439321
    H      9.57193318     -2.52047678      0.04182470      0.92640253
