   47
Geometry Step: 1351
    C     -4.01440699     -2.41403164     -1.71822362      4.11557744
    C     -3.54478687     -1.40494586     -0.88049207      4.08620254
    C     -4.43145080     -0.80752227      0.03430504      4.03236008
    C     -5.78978058     -1.23271187      0.04230023      3.86668490
    C     -6.26299578     -2.25507004     -0.79434679      4.16444101
    C     -5.35252044     -2.84304737     -1.66954975      4.07189877
    C     -4.32816988      0.26417630      1.01133586      4.06340136
    C     -5.64069447      0.45582594      1.52949955      3.86469502
    N     -6.49568722     -0.46925891      0.95620694      5.17686326
    C     -5.95346221      1.46530664      2.45308810      4.17366849
    C     -4.91877793      2.31226702      2.84688715      4.07097529
    C     -3.61480511      2.13783062      2.36309780      4.14330345
    C     -3.27970124      1.10606686      1.46696637      3.94130566
    H     -2.82834582      2.80127346      2.71441278      0.91544226
    H     -7.48952340     -0.53869907      1.13724201      0.78536092
    H     -5.12098618      3.11584629      3.54978840      0.91994475
    H     -2.51115399     -1.07996737     -0.95409652      0.91123648
    H     -7.30324549     -2.56850047     -0.76723829      0.91882632
    H     -5.68349181     -3.63686577     -2.33390243      0.92253302
    H     -3.33466923     -2.87934780     -2.42669391      0.92007387
    N      2.89110017      0.55714381      0.00916029      5.29320883
    C      1.90556072      1.51349277      0.22192348      3.84837658
    C      2.32233469      2.82556552      0.10000122      4.16710807
    S      4.02966197      2.88468550     -0.30022763      6.07910172
    C      4.06690431      1.07452315     -0.27531853      3.76885002
    C      0.54932542      1.09088543      0.54585423      3.80542696
    S     -0.76903366      2.25786981      0.82220012      6.05457019
    C     -1.87656168      0.91002133      1.08309290      3.99394495
    C     -1.17483501     -0.27617730      0.96732084      3.98902967
    N      0.16291320     -0.16880419      0.66729018      5.28508049
    H      1.72640297      3.72062553      0.22273677      0.88571369
    H     -1.60922491     -1.25954496      1.13393080      0.91508186
    C      7.60455067     -1.26296122     -1.05895068      3.63144897
    C      7.68567995      0.13923809     -1.10463412      4.36130675
    C      6.53808681      0.90932512     -0.85063755      3.65476540
    C      5.28116821      0.30607810     -0.54494888      4.22032003
    C      5.24447094     -1.12104731     -0.50921638      3.65131740
    C      6.38726450     -1.89860232     -0.76190228      4.36356671
    O      4.08738695     -1.74220061     -0.22660543      6.41456380
    O      6.67237100      2.24814208     -0.90755010      6.47134193
    O      8.69796698     -2.01897524     -1.30053429      6.45112646
    H      9.46146776     -1.45822170     -1.48994285      0.64695635
    H      5.82072049      2.69357148     -0.71671210      0.63409701
    H      4.20180014     -2.70095317     -0.23457670      0.65192653
    H      6.33364422     -2.98167993     -0.72872094      0.89129036
    H     -6.96368893      1.59071534      2.83213597      0.91598123
    H      8.62081756      0.63896020     -1.33305517      0.88970313
