
                                 *****************
                                 * O   R   C   A *
                                 *****************

           --- An Ab Initio, DFT and Semiempirical electronic structure package ---

                  #######################################################
                  #                        -***-                        #
                  #  Department of molecular theory and spectroscopy    #
                  #              Directorship: Frank Neese              #
                  # Max Planck Institute for Chemical Energy Conversion #
                  #                  D-45470 Muelheim/Ruhr              #
                  #                       Germany                       #
                  #                                                     #
                  #                  All rights reserved                #
                  #                        -***-                        #
                  #######################################################


                         Program Version 4.0.0 -  RELEASE  -


 With contributions from (in alphabetic order):
   Daniel Aravena         : Magnetic Properties
   Michael Atanasov       : Ab Initio Ligand Field Theory
   Ute Becker             : Parallelization
   Martin Brehm           : Molecular dynamics
   Dmytro Bykov           : SCF Hessian
   Vijay G. Chilkuri      : MRCI spin determinant printing
   Dipayan Datta          : RHF DLPNO-CCSD density
   Achintya Kumar Dutta   : EOM-CC, STEOM-CC
   Dmitry Ganyushin       : Spin-Orbit,Spin-Spin,Magnetic field MRCI
   Yang Guo               : DLPNO-NEVPT2, CIM, IAO-localization
   Andreas Hansen         : Spin unrestricted coupled pair/coupled cluster methods
   Lee Huntington         : MR-EOM, pCC
   Robert Izsak           : Overlap fitted RIJCOSX, COSX-SCS-MP3, EOM
   Christian Kollmar      : KDIIS, OOCD, Brueckner-CCSD(T), CCSD density
   Simone Kossmann        : Meta GGA functionals, TD-DFT gradient, OOMP2, MP2 Hessian
   Martin Krupicka        : AUTO-CI
   Dagmar Lenk            : GEPOL surface
   Dimitrios Liakos       : Extrapolation schemes; parallel MDCI
   Dimitrios Manganas     : ROCIS; embedding schemes
   Dimitrios Pantazis     : SARC Basis sets
   Taras Petrenko         : DFT Hessian,TD-DFT gradient, ASA, ECA, R-Raman, ABS, FL, XAS/XES, NRVS
   Peter Pinski           : DLPNO-MP2
   Christoph Reimann      : Effective Core Potentials
   Marius Retegan         : Local ZFS, SOC
   Christoph Riplinger    : Optimizer, TS searches, QM/MM, DLPNO-CCSD(T), (RO)-DLPNO pert. Triples
   Tobias Risthaus        : Range-separated hybrids, TD-DFT gradient, RPA, STAB
   Michael Roemelt        : Restricted open shell CIS
   Masaaki Saitow         : Open-shell DLPNO
   Barbara Sandhoefer     : DKH picture change effects
   Kantharuban Sivalingam : CASSCF convergence, NEVPT2, FIC-MRCI
   Georgi Stoychev        : AutoAux
   Boris Wezisla          : Elementary symmetry handling
   Frank Wennmohs         : Technical directorship


 We gratefully acknowledge several colleagues who have allowed us to
 interface, adapt or use parts of their codes:
   Stefan Grimme, W. Hujo, H. Kruse,             : VdW corrections, initial TS optimization,
                  C. Bannwarth                     DFT functionals, gCP, sTDA/sTD-DF
   Ed Valeev                                     : LibInt (2-el integral package), F12 methods
   Garnet Chan, S. Sharma, J. Yang, R. Olivares  : DMRG
   Ulf Ekstrom                                   : XCFun DFT Library
   Mihaly Kallay                                 : mrcc  (arbitrary order and MRCC methods)
   Jiri Pittner, Ondrej Demel                    : Mk-CCSD
   Frank Weinhold                                : gennbo (NPA and NBO analysis)
   Christopher J. Cramer and Donald G. Truhlar   : smd solvation model


 Your calculation uses the libint2 library for the computation of 2-el integrals
 For citations please refer to: http://libint.valeyev.net

 This ORCA versions uses:
   CBLAS   interface :  Fast vector & matrix operations
   LAPACKE interface :  Fast linear algebra routines
   SCALAPACK package :  Parallel linear algebra routines


Your calculation utilizes the atom-pairwise dispersion correction
with the zero-damping scheme (D30)
Cite in your paper:
S.Grimme, J.Antony, S.Ehrlich and H.Krieg, J.Chem.Phys., 132, (2010), 154104 
   

XCFun DFT library Copyright 2009-2010 Ulf Ekstrom and contributors.
See http://admol.org/xcfun for more information. This is free soft-
ware; see the source code for copying conditions. There is ABSOLUTELY
NO WARRANTY; not even for MERCHANTABILITY or FITNESS FOR A PARTICULAR
PURPOSE. For details see the documentation. Scientific users of this 
library should cite U. Ekstrom, L. Visscher, R. Bast, A. J. Thorvald-
sen and K. Ruud; J.Chem.Theor.Comp. 2010, DOI: 10.1021/ct100117s
XCFun Version 0.99 
Your calculation utilizes the basis: def2-TZVP
   F. Weigend and R. Ahlrichs, Phys. Chem. Chem. Phys. 7, 3297 (2005).

Your calculation utilizes the auxiliary basis: def2/J
   F. Weigend, Phys. Chem. Chem. Phys. 8, 1057 (2006).

================================================================================
                                        WARNINGS
                       Please study these warnings very carefully!
================================================================================

Warning: TCutStore was < 0. Adjusted to Thresh (uncritical)
INFO   : Checking CIS options ...

WARNING: CIS/ROCIS methods need fully converged wavefunctions
  ===> : Setting SCFConvForced true
         You can overwrite this default with %scf ConvForced false 


INFO   : the flag for use of LIBINT has been found!

Your calculation utilizes the atom-pairwise dispersion correction
with the zero-damping scheme (D30)
Cite in your paper:
S.Grimme, J.Antony, S.Ehrlich and H.Krieg, J.Chem.Phys., 132, (2010), 154104 
   

XCFun DFT library Copyright 2009-2010 Ulf Ekstrom and contributors.
See http://admol.org/xcfun for more information. This is free soft-
ware; see the source code for copying conditions. There is ABSOLUTELY
NO WARRANTY; not even for MERCHANTABILITY or FITNESS FOR A PARTICULAR
PURPOSE. For details see the documentation. Scientific users of this 
library should cite U. Ekstrom, L. Visscher, R. Bast, A. J. Thorvald-
sen and K. Ruud; J.Chem.Theor.Comp. 2010, DOI: 10.1021/ct100117s
XCFun Version 0.99 
Your calculation utilizes the basis: def2-TZVP
   F. Weigend and R. Ahlrichs, Phys. Chem. Chem. Phys. 7, 3297 (2005).

Your calculation utilizes the auxiliary basis: def2/J
   F. Weigend, Phys. Chem. Chem. Phys. 8, 1057 (2006).

================================================================================
                                        WARNINGS
                       Please study these warnings very carefully!
================================================================================

INFO   : Checking CIS options ...

INFO   : the flag for use of LIBINT has been found!

================================================================================
                                       INPUT FILE
================================================================================
NAME = total.inp
|  1> # 
|  2> !wB97X-D3 def2-TZVP def2/J RIJCOSX Grid5 FinalGrid6 TightSCF
|  3> %pal 
|  4>  nprocs 24
|  5> end
|  6> %tddft
|  7>   Mode sTDDFT
|  8>   nroots 2
|  9>   Ethresh 10.0
| 10>   maxcore 5000
| 11>   triplets true
| 12> end
| 13> * xyz 0 1 
| 14> C -4.71377252 3.24156896 -0.21296990
| 15> C -4.56975136 1.86596552 -0.05128289
| 16> C -5.60111067 1.01207910 -0.48508188
| 17> C -6.77896929 1.59603732 -1.03118323
| 18> C -6.92485199 2.98159281 -1.20006956
| 19> C -5.87076758 3.79401825 -0.79029113
| 20> C -5.82626445 -0.42421374 -0.45828213
| 21> C -7.14925789 -0.62558865 -0.94906067
| 22> N -7.69094568 0.59412484 -1.31253116
| 23> C -7.75649235 -1.88909521 -1.00644527
| 24> C -7.01933668 -2.97602985 -0.54134190
| 25> C -5.70896404 -2.81165638 -0.07178439
| 26> C -5.07725296 -1.55494990 -0.04152195
| 27> H -5.14749320 -3.68160791 0.25644650
| 28> H -8.62543618 0.73463207 -1.67645648
| 29> H -7.45826422 -3.96967492 -0.55584517
| 30> H -3.67453785 1.47253459 0.42167869
| 31> H -7.83142488 3.40379754 -1.62518293
| 32> H -5.94854156 4.87187274 -0.90413287
| 33> H -3.91896660 3.90390353 0.11835944
| 34> S 1.32144241 -1.92395524 1.65050445
| 35> C 0.17275186 -1.13707841 0.54904396
| 36> N 0.74777711 -0.30244559 -0.30673857
| 37> N 2.10231126 -0.22293232 -0.16123788
| 38> C 2.57855071 -0.99703304 0.80823315
| 39> C -1.24789511 -1.39548578 0.59793959
| 40> N -1.81752372 -2.22551528 1.46114059
| 41> N -3.17546458 -2.30857385 1.31529191
| 42> C -3.66219538 -1.52576987 0.36330731
| 43> S -2.40010791 -0.61559483 -0.49514708
| 44> S 10.87958763 2.24836848 -1.45480735
| 45> C 9.81149316 1.22295569 -0.46811131
| 46> C 10.37432212 0.46050479 0.50317645
| 47> S 12.13874495 0.54200594 0.71886178
| 48> C 12.45785732 1.76593243 -0.62654140
| 49> S 9.30234866 -0.56027587 1.48391430
| 50> C 7.80347588 -0.05293641 0.64085950
| 51> S 8.05083061 1.13618819 -0.67707659
| 52> C 6.57646306 -0.53023624 0.97252825
| 53> S 5.07366477 -0.03323074 0.14069186
| 54> C 3.98873594 -1.05717718 1.12336441
| 55> C 4.57008250 -1.81550977 2.09316520
| 56> S 6.31740065 -1.71689238 2.28563236
| 57> H 13.14503325 1.33399340 -1.36360027
| 58> H 12.94311972 2.65594667 -0.20889146
| 59> H -8.76681073 -2.01134227 -1.38658555
| 60> H 4.00640579 -2.47342125 2.74786127
| 61> *
| 62> $new_job
| 63> # 
| 64> !wB97X-D3 def2-TZVP def2/J RIJCOSX Grid5 FinalGrid6 TightSCF
| 65> %pal 
| 66>  nprocs 24
| 67> end
| 68> %elprop
| 69>    dipole     true
| 70>    quadrupole true
| 71> end
| 72> %tddft
| 73>   Mode sTDDFT
| 74>   nroots 2
| 75>   Ethresh 10.0
| 76>   maxcore 5000
| 77> end
| 78> * xyz 0 1 
| 79> C -4.71377252 3.24156896 -0.21296990
| 80> C -4.56975136 1.86596552 -0.05128289
| 81> C -5.60111067 1.01207910 -0.48508188
| 82> C -6.77896929 1.59603732 -1.03118323
| 83> C -6.92485199 2.98159281 -1.20006956
| 84> C -5.87076758 3.79401825 -0.79029113
| 85> C -5.82626445 -0.42421374 -0.45828213
| 86> C -7.14925789 -0.62558865 -0.94906067
| 87> N -7.69094568 0.59412484 -1.31253116
| 88> C -7.75649235 -1.88909521 -1.00644527
| 89> C -7.01933668 -2.97602985 -0.54134190
| 90> C -5.70896404 -2.81165638 -0.07178439
| 91> C -5.07725296 -1.55494990 -0.04152195
| 92> H -5.14749320 -3.68160791 0.25644650
| 93> H -8.62543618 0.73463207 -1.67645648
| 94> H -7.45826422 -3.96967492 -0.55584517
| 95> H -3.67453785 1.47253459 0.42167869
| 96> H -7.83142488 3.40379754 -1.62518293
| 97> H -5.94854156 4.87187274 -0.90413287
| 98> H -3.91896660 3.90390353 0.11835944
| 99> S 1.32144241 -1.92395524 1.65050445
|100> C 0.17275186 -1.13707841 0.54904396
|101> N 0.74777711 -0.30244559 -0.30673857
|102> N 2.10231126 -0.22293232 -0.16123788
|103> C 2.57855071 -0.99703304 0.80823315
|104> C -1.24789511 -1.39548578 0.59793959
|105> N -1.81752372 -2.22551528 1.46114059
|106> N -3.17546458 -2.30857385 1.31529191
|107> C -3.66219538 -1.52576987 0.36330731
|108> S -2.40010791 -0.61559483 -0.49514708
|109> S 10.87958763 2.24836848 -1.45480735
|110> C 9.81149316 1.22295569 -0.46811131
|111> C 10.37432212 0.46050479 0.50317645
|112> S 12.13874495 0.54200594 0.71886178
|113> C 12.45785732 1.76593243 -0.62654140
|114> S 9.30234866 -0.56027587 1.48391430
|115> C 7.80347588 -0.05293641 0.64085950
|116> S 8.05083061 1.13618819 -0.67707659
|117> C 6.57646306 -0.53023624 0.97252825
|118> S 5.07366477 -0.03323074 0.14069186
|119> C 3.98873594 -1.05717718 1.12336441
|120> C 4.57008250 -1.81550977 2.09316520
|121> S 6.31740065 -1.71689238 2.28563236
|122> H 13.14503325 1.33399340 -1.36360027
|123> H 12.94311972 2.65594667 -0.20889146
|124> H -8.76681073 -2.01134227 -1.38658555
|125> H 4.00640579 -2.47342125 2.74786127
|126> *
|127> 
|128>                          ****END OF INPUT****
================================================================================


                 $$$$$$$$$$$$$$$$$$$$$$$$$$$$$$$$$$$$$$$$$$$$$$ 
                 $ THERE ARE  2 JOBS TO BE PROCESSED THIS RUN $
                 $$$$$$$$$$$$$$$$$$$$$$$$$$$$$$$$$$$$$$$$$$$$$$ 




                 $$$$$$$$$$$$$$$$  JOB NUMBER  1 $$$$$$$$$$$$$$


                       ****************************
                       * Single Point Calculation *
                       ****************************

---------------------------------
CARTESIAN COORDINATES (ANGSTROEM)
---------------------------------
  C     -4.713773    3.241569   -0.212970
  C     -4.569751    1.865966   -0.051283
  C     -5.601111    1.012079   -0.485082
  C     -6.778969    1.596037   -1.031183
  C     -6.924852    2.981593   -1.200070
  C     -5.870768    3.794018   -0.790291
  C     -5.826264   -0.424214   -0.458282
  C     -7.149258   -0.625589   -0.949061
  N     -7.690946    0.594125   -1.312531
  C     -7.756492   -1.889095   -1.006445
  C     -7.019337   -2.976030   -0.541342
  C     -5.708964   -2.811656   -0.071784
  C     -5.077253   -1.554950   -0.041522
  H     -5.147493   -3.681608    0.256447
  H     -8.625436    0.734632   -1.676456
  H     -7.458264   -3.969675   -0.555845
  H     -3.674538    1.472535    0.421679
  H     -7.831425    3.403798   -1.625183
  H     -5.948542    4.871873   -0.904133
  H     -3.918967    3.903904    0.118359
  S      1.321442   -1.923955    1.650504
  C      0.172752   -1.137078    0.549044
  N      0.747777   -0.302446   -0.306739
  N      2.102311   -0.222932   -0.161238
  C      2.578551   -0.997033    0.808233
  C     -1.247895   -1.395486    0.597940
  N     -1.817524   -2.225515    1.461141
  N     -3.175465   -2.308574    1.315292
  C     -3.662195   -1.525770    0.363307
  S     -2.400108   -0.615595   -0.495147
  S     10.879588    2.248368   -1.454807
  C      9.811493    1.222956   -0.468111
  C     10.374322    0.460505    0.503176
  S     12.138745    0.542006    0.718862
  C     12.457857    1.765932   -0.626541
  S      9.302349   -0.560276    1.483914
  C      7.803476   -0.052936    0.640859
  S      8.050831    1.136188   -0.677077
  C      6.576463   -0.530236    0.972528
  S      5.073665   -0.033231    0.140692
  C      3.988736   -1.057177    1.123364
  C      4.570082   -1.815510    2.093165
  S      6.317401   -1.716892    2.285632
  H     13.145033    1.333993   -1.363600
  H     12.943120    2.655947   -0.208891
  H     -8.766811   -2.011342   -1.386586
  H      4.006406   -2.473421    2.747861

----------------------------
CARTESIAN COORDINATES (A.U.)
----------------------------
  NO LB      ZA    FRAG     MASS         X           Y           Z
   0 C     6.0000    0    12.011   -8.907739    6.125678   -0.402455
   1 C     6.0000    0    12.011   -8.635579    3.526164   -0.096911
   2 C     6.0000    0    12.011  -10.584565    1.912552   -0.916672
   3 C     6.0000    0    12.011  -12.810395    3.016073   -1.948654
   4 C     6.0000    0    12.011  -13.086074    5.634394   -2.267803
   5 C     6.0000    0    12.011  -11.094143    7.169655   -1.493434
   6 C     6.0000    0    12.011  -11.010044   -0.801648   -0.866028
   7 C     6.0000    0    12.011  -13.510139   -1.182191   -1.793465
   8 N     7.0000    0    14.007  -14.533781    1.122733   -2.480324
   9 C     6.0000    0    12.011  -14.657646   -3.569873   -1.901906
  10 C     6.0000    0    12.011  -13.264624   -5.623881   -1.022988
  11 C     6.0000    0    12.011  -10.788379   -5.313261   -0.135653
  12 C     6.0000    0    12.011   -9.594618   -2.938429   -0.078465
  13 H     1.0000    0     1.008   -9.727352   -6.957231    0.484614
  14 H     1.0000    0     1.008  -16.299712    1.388253   -3.168044
  15 H     1.0000    0     1.008  -14.094077   -7.501598   -1.050395
  16 H     1.0000    0     1.008   -6.943870    2.782687    0.796857
  17 H     1.0000    0     1.008  -14.799248    6.432245   -3.071151
  18 H     1.0000    0     1.008  -11.241114    9.206505   -1.708564
  19 H     1.0000    0     1.008   -7.405774    7.377309    0.223667
  20 S    16.0000    0    32.060    2.497164   -3.635748    3.119001
  21 C     6.0000    0    12.011    0.326454   -2.148767    1.037543
  22 N     7.0000    0    14.007    1.413094   -0.571539   -0.579652
  23 N     7.0000    0    14.007    3.972793   -0.421281   -0.304695
  24 C     6.0000    0    12.011    4.872755   -1.884119    1.527339
  25 C     6.0000    0    12.011   -2.358180   -2.637086    1.129942
  26 N     7.0000    0    14.007   -3.434622   -4.205614    2.761156
  27 N     7.0000    0    14.007   -6.000758   -4.362572    2.485541
  28 C     6.0000    0    12.011   -6.920546   -2.883287    0.686551
  29 S    16.0000    0    32.060   -4.535547   -1.163306   -0.935692
  30 S    16.0000    0    32.060   20.559441    4.248801   -2.749187
  31 C     6.0000    0    12.011   18.541035    2.311051   -0.884602
  32 C     6.0000    0    12.011   19.604628    0.870228    0.950866
  33 S    16.0000    0    32.060   22.938904    1.024243    1.358452
  34 C     6.0000    0    12.011   23.541939    3.337129   -1.183992
  35 S    16.0000    0    32.060   17.578891   -1.058768    2.804192
  36 C     6.0000    0    12.011   14.746432   -0.100035    1.211049
  37 S    16.0000    0    32.060   15.213865    2.147085   -1.279489
  38 C     6.0000    0    12.011   12.427714   -1.002001    1.837812
  39 S    16.0000    0    32.060    9.587837   -0.062797    0.265869
  40 C     6.0000    0    12.011    7.537619   -1.997775    2.122851
  41 C     6.0000    0    12.011    8.636204   -3.430816    3.955509
  42 S    16.0000    0    32.060   11.938157   -3.244456    4.319219
  43 H     1.0000    0     1.008   24.840513    2.520882   -2.576831
  44 H     1.0000    0     1.008   24.458952    5.019012   -0.394748
  45 H     1.0000    0     1.008  -16.566871   -3.800886   -2.620267
  46 H     1.0000    0     1.008    7.571010   -4.674089    5.192705

--------------------------------
INTERNAL COORDINATES (ANGSTROEM)
--------------------------------
 C      0   0   0     0.000000000000     0.00000000     0.00000000
 C      1   0   0     1.392540702411     0.00000000     0.00000000
 C      2   1   0     1.407482009942   119.19124828     0.00000000
 C      3   2   1     1.423581685709   118.40220411   357.74117451
 C      4   3   2     1.403413114692   122.49008081     2.58687051
 C      5   4   3     1.392496822495   117.51026119   358.97827015
 C      3   2   1     1.454080318787   134.99448473   181.85590963
 C      7   3   2     1.425386639472   106.07663319   174.30533129
 N      8   7   3     1.383198270901   109.23146017     2.45478338
 C      8   7   3     1.403023702185   122.88978973   183.43195350
 C     10   8   7     1.393250350163   117.38188699     0.84389596
 C     11  10   8     1.401634527435   120.99649210   358.21250036
 C     12  11  10     1.406870953835   122.12336683     0.20054602
 H     12  11  10     1.086186303481   119.37808811   181.85534893
 H      9   8   7     1.012648218687   125.32283262   181.15678360
 H     11  10   8     1.086369299707   119.69151489   179.17318991
 H      2   1   3     1.086226395059   119.57659838   181.07570412
 H      5   4   3     1.086670426703   121.15702749   179.61021966
 H      6   5   4     1.086636570038   119.58449714   180.08808392
 H      1   2   3     1.086362124077   119.41862047   180.14635150
 S     17   2   1     6.164898593817   162.59695301   226.14990350
 C     21  17   2     1.775353580637    26.84968004    33.56271414
 N     22  21  17     1.326510354657   113.49399949   124.01761013
 N     23  22  21     1.364644852851   113.46262733     0.00000000
 C     24  23  22     1.328875470633   113.55104394     0.00000000
 C     22  21  17     1.444784746900   122.40779483   304.03235689
 N     26  22  21     1.326100181209   123.80397952     0.38298612
 N     27  26  22     1.368274074433   113.26086110   180.06492818
 C     28  27  26     1.325127775503   113.90695312   358.62472525
 S     26  22  21     1.769367881055   122.72302716   179.97529883
 S     25  24  23     9.195716246050    86.46745642   180.01300876
 C     31  25  24     1.779288133522    28.14537555   180.01360230
 C     32  31  25     1.357021637945   118.14748156   180.01558997
 S     33  32  31     1.779424210820   118.18233220     0.00000000
 C     31  25  24     1.846538448189   124.67813518   180.00260630
 S     33  32  31     1.775659591588   117.90022716   179.99944697
 C     36  33  32     1.792973601061    94.72140300     0.00000000
 S     32  31  25     1.775141600626   123.93737601     0.00000000
 C     37  36  33     1.357711216676   122.76265438   180.00428725
 S     39  37  36     1.788118829157   123.24208894   179.99810495
 C     25  24  23     1.446218313919   122.18411152   180.00035599
 C     41  25  24     1.361449856647   126.49462819   179.99904638
 S     42  41  25     1.760650366941   118.06300370   180.00578310
 H     35  31  25     1.096374873050   109.70007033   121.14156517
 H     35  31  25     1.096374213779   109.69930323   238.84916171
 H     10   8   7     1.086367435596   121.20869801   180.04729389
 H     42  41  25     1.085912470223   123.04373656     0.00000000

---------------------------
INTERNAL COORDINATES (A.U.)
---------------------------
 C      0   0   0     0.000000000000     0.00000000     0.00000000
 C      1   0   0     2.631520557894     0.00000000     0.00000000
 C      2   1   0     2.659755537211   119.19124828     0.00000000
 C      3   2   1     2.690179515256   118.40220411   357.74117451
 C      4   3   2     2.652066439521   122.49008081     2.58687051
 C      5   4   3     2.631437636870   117.51026119   358.97827015
 C      3   2   1     2.747813579232   134.99448473   181.85590963
 C      7   3   2     2.693590383552   106.07663319   174.30533129
 N      8   7   3     2.613865920917   109.23146017     2.45478338
 C      8   7   3     2.651330556529   122.88978973   183.43195350
 C     10   8   7     2.632861597799   117.38188699     0.84389596
 C     11  10   8     2.648705396700   120.99649210   358.21250036
 C     12  11  10     2.658600808516   122.12336683     0.20054602
 H     12  11  10     2.052594643995   119.37808811   181.85534893
 H      9   8   7     1.913627803321   125.32283262   181.15678360
 H     11  10   8     2.052940456747   119.69151489   179.17318991
 H      2   1   3     2.052670406098   119.57659838   181.07570412
 H      5   4   3     2.053509504299   121.15702749   179.61021966
 H      6   5   4     2.053445524476   119.58449714   180.08808392
 H      1   2   3     2.052926896770   119.41862047   180.14635150
 S     17   2   1    11.649969985710   162.59695301   226.14990350
 C     21  17   2     3.354932058281    26.84968004    33.56271414
 N     22  21  17     2.506741284112   113.49399949   124.01761013
 N     23  22  21     2.578805041954   113.46262733     0.00000000
 C     24  23  22     2.511210705582   113.55104394     0.00000000
 C     22  21  17     2.730247494107   122.40779483   304.03235689
 N     26  22  21     2.505966168628   123.80397952     0.38298612
 N     27  26  22     2.585663276823   113.26086110   180.06492818
 C     28  27  26     2.504128588153   113.90695312   358.62472525
 S     26  22  21     3.343620725350   122.72302716   179.97529883
 S     25  24  23    17.377385310284    86.46745642   180.01300876
 C     31  25  24     3.362367285692    28.14537555   180.01360230
 C     32  31  25     2.564399253522   118.14748156   180.01558997
 S     33  32  31     3.362624434519   118.18233220     0.00000000
 C     31  25  24     3.489451962834   124.67813518   180.00260630
 S     33  32  31     3.355510335171   117.90022716   179.99944697
 C     36  33  32     3.388229071356    94.72140300     0.00000000
 S     32  31  25     3.354531474114   123.93737601     0.00000000
 C     37  36  33     2.565702368471   122.76265438   180.00428725
 S     39  37  36     3.379054882014   123.24208894   179.99810495
 C     25  24  23     2.732956543169   122.18411152   180.00035599
 C     41  25  24     2.572767374129   126.49462819   179.99904638
 S     42  41  25     3.327147011106   118.06300370   180.00578310
 H     35  31  25     2.071848250176   109.70007033   121.14156517
 H     35  31  25     2.071847004335   109.69930323   238.84916171
 H     10   8   7     2.052936934086   121.20869801   180.04729389
 H     42  41  25     2.052077174131   123.04373656     0.00000000

---------------------
BASIS SET INFORMATION
---------------------
There are 4 groups of distinct atoms

 Group   1 Type C   : 11s6p2d1f contracted to 5s3p2d1f pattern {62111/411/11/1}
 Group   2 Type N   : 11s6p2d1f contracted to 5s3p2d1f pattern {62111/411/11/1}
 Group   3 Type H   : 5s1p contracted to 3s1p pattern {311/1}
 Group   4 Type S   : 14s9p3d1f contracted to 5s5p2d1f pattern {73211/51111/21/1}

Atom   0C    basis set group =>   1
Atom   1C    basis set group =>   1
Atom   2C    basis set group =>   1
Atom   3C    basis set group =>   1
Atom   4C    basis set group =>   1
Atom   5C    basis set group =>   1
Atom   6C    basis set group =>   1
Atom   7C    basis set group =>   1
Atom   8N    basis set group =>   2
Atom   9C    basis set group =>   1
Atom  10C    basis set group =>   1
Atom  11C    basis set group =>   1
Atom  12C    basis set group =>   1
Atom  13H    basis set group =>   3
Atom  14H    basis set group =>   3
Atom  15H    basis set group =>   3
Atom  16H    basis set group =>   3
Atom  17H    basis set group =>   3
Atom  18H    basis set group =>   3
Atom  19H    basis set group =>   3
Atom  20S    basis set group =>   4
Atom  21C    basis set group =>   1
Atom  22N    basis set group =>   2
Atom  23N    basis set group =>   2
Atom  24C    basis set group =>   1
Atom  25C    basis set group =>   1
Atom  26N    basis set group =>   2
Atom  27N    basis set group =>   2
Atom  28C    basis set group =>   1
Atom  29S    basis set group =>   4
Atom  30S    basis set group =>   4
Atom  31C    basis set group =>   1
Atom  32C    basis set group =>   1
Atom  33S    basis set group =>   4
Atom  34C    basis set group =>   1
Atom  35S    basis set group =>   4
Atom  36C    basis set group =>   1
Atom  37S    basis set group =>   4
Atom  38C    basis set group =>   1
Atom  39S    basis set group =>   4
Atom  40C    basis set group =>   1
Atom  41C    basis set group =>   1
Atom  42S    basis set group =>   4
Atom  43H    basis set group =>   3
Atom  44H    basis set group =>   3
Atom  45H    basis set group =>   3
Atom  46H    basis set group =>   3
-------------------------------
AUXILIARY BASIS SET INFORMATION
-------------------------------
There are 4 groups of distinct atoms

 Group   1 Type C   : 12s5p4d2f1g contracted to 6s4p3d1f1g pattern {711111/2111/211/2/1}
 Group   2 Type N   : 12s5p4d2f1g contracted to 6s4p3d1f1g pattern {711111/2111/211/2/1}
 Group   3 Type H   : 5s2p1d contracted to 3s1p1d pattern {311/2/1}
 Group   4 Type S   : 14s5p5d2f1g contracted to 8s4p3d1f1g pattern {71111111/2111/311/2/1}

Atom   0C    basis set group =>   1
Atom   1C    basis set group =>   1
Atom   2C    basis set group =>   1
Atom   3C    basis set group =>   1
Atom   4C    basis set group =>   1
Atom   5C    basis set group =>   1
Atom   6C    basis set group =>   1
Atom   7C    basis set group =>   1
Atom   8N    basis set group =>   2
Atom   9C    basis set group =>   1
Atom  10C    basis set group =>   1
Atom  11C    basis set group =>   1
Atom  12C    basis set group =>   1
Atom  13H    basis set group =>   3
Atom  14H    basis set group =>   3
Atom  15H    basis set group =>   3
Atom  16H    basis set group =>   3
Atom  17H    basis set group =>   3
Atom  18H    basis set group =>   3
Atom  19H    basis set group =>   3
Atom  20S    basis set group =>   4
Atom  21C    basis set group =>   1
Atom  22N    basis set group =>   2
Atom  23N    basis set group =>   2
Atom  24C    basis set group =>   1
Atom  25C    basis set group =>   1
Atom  26N    basis set group =>   2
Atom  27N    basis set group =>   2
Atom  28C    basis set group =>   1
Atom  29S    basis set group =>   4
Atom  30S    basis set group =>   4
Atom  31C    basis set group =>   1
Atom  32C    basis set group =>   1
Atom  33S    basis set group =>   4
Atom  34C    basis set group =>   1
Atom  35S    basis set group =>   4
Atom  36C    basis set group =>   1
Atom  37S    basis set group =>   4
Atom  38C    basis set group =>   1
Atom  39S    basis set group =>   4
Atom  40C    basis set group =>   1
Atom  41C    basis set group =>   1
Atom  42S    basis set group =>   4
Atom  43H    basis set group =>   3
Atom  44H    basis set group =>   3
Atom  45H    basis set group =>   3
Atom  46H    basis set group =>   3
-------------------------
ECP PARAMETER INFORMATION
-------------------------



--------------------------------------------------------------------------
[[30570,1],4]: A high-performance Open MPI point-to-point messaging module
was unable to find any relevant network interfaces:

Module: OpenFabrics (openib)
  Host: cx1-103-9-2

Another transport will be used instead, although this may result in
lower performance.
--------------------------------------------------------------------------


           ************************************************************
           *        Program running with 24 parallel MPI-processes    *
           *              working on a common directory               *
           ************************************************************
------------------------------------------------------------------------------
                           ORCA GTO INTEGRAL CALCULATION
                           -- RI-GTO INTEGRALS CHOSEN --
------------------------------------------------------------------------------

                         BASIS SET STATISTICS AND STARTUP INFO

Gaussian basis set:
 # of primitive gaussian shells          ...  842
 # of primitive gaussian functions       ... 1880
 # of contracted shells                  ...  456
 # of contracted basis functions         ... 1230
 Highest angular momentum                ...    3
 Maximum contraction depth               ...    7
Auxiliary gaussian basis set:
 # of primitive gaussian shells          ...  976
 # of primitive gaussian functions       ... 2752
 # of contracted shells                  ...  611
 # of contracted aux-basis functions     ... 1901
 Highest angular momentum                ...    4
 Maximum contraction depth               ...    7
Ratio of auxiliary to basis functions    ...  1.55
Integral package used                  ... LIBINT
 One Electron integrals                  
   ECP integrals                         ... done
 Ordering auxiliary basis shells         ... done
 Integral threshhold             Thresh  ...  2.500e-11
 Primitive cut-off               TCut    ...  2.500e-12
 Pre-screening matrix                    ... done
 Shell pair data                         ... 
 Ordering of the shell pairs             ... done (   0.010 sec) 44171 of 104196 pairs
 Determination of significant pairs      ... done (   0.000 sec)
 Creation of shell pair data             ... done (   0.008 sec)
 Storage of shell pair data              ... done (   0.121 sec)
 Shell pair data done in (   0.139 sec)
 Computing two index integrals           ... done
 Cholesky decomposition of the V-matrix  ... done


Timings:
 Total evaluation time                   ...   5.450 sec (  0.091 min)
 One electron matrix time                ...   1.501 sec (  0.025 min) = 27.5%
 Schwartz matrix evaluation time         ...   2.185 sec (  0.036 min) = 40.1%
 Two index repulsion integral time       ...   0.983 sec (  0.016 min) = 18.0%
 Cholesky decomposition of V             ...   0.604 sec (  0.010 min) = 11.1%
 Three index repulsion integral time     ...   0.000 sec (  0.000 min) =  0.0%

--------------------------------------------------------------------------
[[30612,1],1]: A high-performance Open MPI point-to-point messaging module
was unable to find any relevant network interfaces:

Module: OpenFabrics (openib)
  Host: cx1-103-9-2

Another transport will be used instead, although this may result in
lower performance.
--------------------------------------------------------------------------


           ************************************************************
           *        Program running with 24 parallel MPI-processes    *
           *              working on a common directory               *
           ************************************************************
-------------------------------------------------------------------------------
                                 ORCA SCF
-------------------------------------------------------------------------------

------------
SCF SETTINGS
------------
Hamiltonian:
 Density Functional     Method          .... DFT(GTOs)
 Exchange Functional    Exchange        .... WB97X-D3
 Correlation Functional Correlation     .... WB97X-D3
 Gradients option       PostSCFGGA      .... off
 Hybrid DFT is turned on
   Fraction HF Exchange ScalHFX         ....  0.195728
   Scaling of DF-GGA-X  ScalDFX         ....  0.000000
   Scaling of DF-GGA-C  ScalDFC         ....  1.000000
   Scaling of DF-LDA-C  ScalLDAC        ....  1.000000
   Perturbative correction              ....  0.000000
 Long-range corrected/Screened/Range-Separated Hybrid DFT is turned on
   Amount of maximum screened exact exchange              ....  0.804272
   Range separation parameter mu (erf(mu*r12)/r12)        ....  0.250000
 RI-approximation to the Coulomb term is turned on
   Number of auxiliary basis functions  .... 1901
   RIJ-COSX (HFX calculated with COS-X)).... on


General Settings:
 Integral files         IntName         .... total
 Hartree-Fock type      HFTyp           .... RHF
 Total Charge           Charge          ....    0
 Multiplicity           Mult            ....    1
 Number of Electrons    NEL             ....  312
 Basis Dimension        Dim             .... 1230
 Nuclear Repulsion      ENuc            ....   4610.4803805747 Eh

Convergence Acceleration:
 DIIS                   CNVDIIS         .... on
   Start iteration      DIISMaxIt       ....    12
   Startup error        DIISStart       ....  0.200000
   # of expansion vecs  DIISMaxEq       ....     5
   Bias factor          DIISBfac        ....   1.050
   Max. coefficient     DIISMaxC        ....  10.000
 Newton-Raphson         CNVNR           .... off
 SOSCF                  CNVSOSCF        .... on
   Start iteration      SOSCFMaxIt      ....   150
   Startup grad/error   SOSCFStart      ....  0.003300
 Level Shifting         CNVShift        .... on
   Level shift para.    LevelShift      ....    0.2500
   Turn off err/grad.   ShiftErr        ....    0.0010
 Zerner damping         CNVZerner       .... off
 Static damping         CNVDamp         .... on
   Fraction old density DampFac         ....    0.7000
   Max. Damping (<1)    DampMax         ....    0.9800
   Min. Damping (>=0)   DampMin         ....    0.0000
   Turn off err/grad.   DampErr         ....    0.1000
 Fernandez-Rico         CNVRico         .... off

SCF Procedure:
 Maximum # iterations   MaxIter         ....   125
 SCF integral mode      SCFMode         .... Direct
   Integral package                     .... LIBINT
 Reset frequeny         DirectResetFreq ....    20
 Integral Threshold     Thresh          ....  2.500e-11 Eh
 Primitive CutOff       TCut            ....  2.500e-12 Eh

Convergence Tolerance:
 Convergence Check Mode ConvCheckMode   .... Total+1el-Energy
 Convergence forced     ConvForced      .... 1
 Energy Change          TolE            ....  1.000e-08 Eh
 1-El. energy change                    ....  1.000e-05 Eh
 Orbital Gradient       TolG            ....  1.000e-05
 Orbital Rotation angle TolX            ....  1.000e-05
 DIIS Error             TolErr          ....  5.000e-07


Diagonalization of the overlap matrix:
Smallest eigenvalue                        ... 6.347e-06
Time for diagonalization                   ...    0.457 sec
Threshold for overlap eigenvalues          ... 1.000e-08
Number of eigenvalues below threshold      ... 0
Time for construction of square roots      ...    0.534 sec
Total time needed                          ...    1.002 sec

-------------------
DFT GRID GENERATION
-------------------

General Integration Accuracy     IntAcc      ...  5.010
Radial Grid Type                 RadialGrid  ... Gauss-Chebyshev
Angular Grid (max. acc.)         AngularGrid ... Lebedev-434
Angular grid pruning method      GridPruning ... 3 (G Style)
Weight generation scheme         WeightScheme... Becke
Basis function cutoff            BFCut       ...    1.0000e-11
Integration weight cutoff        WCut        ...    1.0000e-14
Grids for H and He will be reduced by one unit

# of grid points (after initial pruning)     ... 466536 (   0.0 sec)
# of grid points (after weights+screening)   ... 416103 (   1.0 sec)
nearest neighbour list constructed           ...    0.0 sec
Grid point re-assignment to atoms done       ...    0.1 sec
Grid point division into batches done        ...    4.0 sec
Reduced shell lists constructed in    4.6 sec

Total number of grid points                  ...   416103
Total number of batches                      ...     6524
Average number of points per batch           ...       63
Average number of grid points per atom       ...     8853
Average number of shells per batch           ...   136.48 (29.93%)
Average number of basis functions per batch  ...   358.65 (29.16%)
Average number of large shells per batch     ...    93.85 (68.77%)
Average number of large basis fcns per batch ...   246.12 (68.62%)
Maximum spatial batch extension              ...  12.96,  8.33, 14.36 au
Average spatial batch extension              ...   0.05,  0.05,  0.06 au

Time for grid setup =    7.282 sec

------------------------------
INITIAL GUESS: MODEL POTENTIAL
------------------------------
Loading Hartree-Fock densities                     ... done
Calculating cut-offs                               ... done
Setting up the integral package                    ... done
Initializing the effective Hamiltonian             ... done
Starting the Coulomb interaction                   ... done (   0.4 sec)
Reading the grid                                   ... done
Mapping shells                                     ... done
Starting the XC term evaluation                    ... done (   1.7 sec)
  promolecular density results
     # of electrons  =    311.994621815
     EX              =   -352.746387114
     EC              =    -11.280724089
     EX+EC           =   -364.027111203
Transforming the Hamiltonian                       ... done (   0.2 sec)
Diagonalizing the Hamiltonian                      ... done (   0.4 sec)
Back transforming the eigenvectors                 ... done (   0.1 sec)
Now organizing SCF variables                       ... done
                      ------------------
                      INITIAL GUESS DONE (  10.5 sec)
                      ------------------
--------------------
COSX GRID GENERATION
--------------------

General Integration Accuracy     IntAcc      ...  3.340
Radial Grid Type                 RadialGrid  ... Gauss-Chebyshev
Angular Grid (max. acc.)         AngularGrid ... Lebedev-50
Angular grid pruning method      GridPruning ... 3 (G Style)
Weight generation scheme         WeightScheme... Becke
Basis function cutoff            BFCut       ...    1.0000e-11
Integration weight cutoff        WCut        ...    1.0000e-14
Grids for H and He will be reduced by one unit

# of grid points (after initial pruning)     ...  25338 (   0.0 sec)
# of grid points (after weights+screening)   ...  23418 (   0.1 sec)
nearest neighbour list constructed           ...    0.0 sec
Grid point re-assignment to atoms done       ...    0.0 sec
Grid point division into batches done        ...    0.0 sec
Reduced shell lists constructed in    0.1 sec

Total number of grid points                  ...    23418
Total number of batches                      ...      387
Average number of points per batch           ...       60
Average number of grid points per atom       ...      498
Average number of shells per batch           ...   147.22 (32.29%)
Average number of basis functions per batch  ...   391.67 (31.84%)
Average number of large shells per batch     ...   102.44 (69.58%)
Average number of large basis fcns per batch ...   273.00 (69.70%)
Maximum spatial batch extension              ...   9.58,  3.31, 16.42 au
Average spatial batch extension              ...   0.16,  0.10,  0.26 au

Overlap Fitting                  UseSFitting ... on
Constructing numerical overlap ... done (      0.1 sec)
Inverting numerical overlap    ... done (      0.2 sec)
Obtaining analytic overlap     ... done (      0.0 sec)
Final contraction and storage  ... done (      0.6 sec)


General Integration Accuracy     IntAcc      ...  3.670
Radial Grid Type                 RadialGrid  ... Gauss-Chebyshev
Angular Grid (max. acc.)         AngularGrid ... Lebedev-50
Angular grid pruning method      GridPruning ... 3 (G Style)
Weight generation scheme         WeightScheme... Becke
Basis function cutoff            BFCut       ...    1.0000e-11
Integration weight cutoff        WCut        ...    1.0000e-14
Grids for H and He will be reduced by one unit

# of grid points (after initial pruning)     ...  31524 (   0.0 sec)
# of grid points (after weights+screening)   ...  29060 (   0.1 sec)
nearest neighbour list constructed           ...    0.0 sec
Grid point re-assignment to atoms done       ...    0.0 sec
Grid point division into batches done        ...    0.0 sec
Reduced shell lists constructed in    0.1 sec

Total number of grid points                  ...    29060
Total number of batches                      ...      477
Average number of points per batch           ...       60
Average number of grid points per atom       ...      618
Average number of shells per batch           ...   146.24 (32.07%)
Average number of basis functions per batch  ...   388.62 (31.60%)
Average number of large shells per batch     ...   102.10 (69.81%)
Average number of large basis fcns per batch ...   271.43 (69.84%)
Maximum spatial batch extension              ...   8.55,  3.66, 14.95 au
Average spatial batch extension              ...   0.15,  0.10,  0.23 au

Overlap Fitting                  UseSFitting ... on
Constructing numerical overlap ... done (      0.1 sec)
Inverting numerical overlap    ... done (      0.2 sec)
Obtaining analytic overlap     ... done (      0.0 sec)
Final contraction and storage  ... done (      0.6 sec)


General Integration Accuracy     IntAcc      ...  4.010
Radial Grid Type                 RadialGrid  ... Gauss-Chebyshev
Angular Grid (max. acc.)         AngularGrid ... Lebedev-110
Angular grid pruning method      GridPruning ... 3 (G Style)
Weight generation scheme         WeightScheme... Becke
Basis function cutoff            BFCut       ...    1.0000e-11
Integration weight cutoff        WCut        ...    1.0000e-14
Grids for H and He will be reduced by one unit

# of grid points (after initial pruning)     ...  61508 (   0.0 sec)
# of grid points (after weights+screening)   ...  56187 (   0.1 sec)
nearest neighbour list constructed           ...    0.0 sec
Grid point re-assignment to atoms done       ...    0.0 sec
Grid point division into batches done        ...    0.1 sec
Reduced shell lists constructed in    0.2 sec

Total number of grid points                  ...    56187
Total number of batches                      ...      899
Average number of points per batch           ...       62
Average number of grid points per atom       ...     1195
Average number of shells per batch           ...   146.95 (32.23%)
Average number of basis functions per batch  ...   390.03 (31.71%)
Average number of large shells per batch     ...   101.54 (69.10%)
Average number of large basis fcns per batch ...   269.23 (69.03%)
Maximum spatial batch extension              ...   9.94,  3.83, 21.23 au
Average spatial batch extension              ...   0.11,  0.09,  0.15 au

Overlap Fitting                  UseSFitting ... on
Constructing numerical overlap ... done (      0.2 sec)
Inverting numerical overlap    ... done (      0.2 sec)
Obtaining analytic overlap     ... done (      0.0 sec)
Final contraction and storage  ... done (      0.6 sec)

Time for X-Grid setup             =    4.298 sec
--------------
SCF ITERATIONS
--------------
ITER       Energy         Delta-E        Max-DP      RMS-DP      [F,P]     Damp
               ***  Starting incremental Fock matrix formation  ***
  0  -4341.7656817665   0.000000000000 0.03591050  0.00049783  0.1430605 0.7000
  1  -4342.0278164625  -0.262134696020 0.03374286  0.00041376  0.0901824 0.7000
                               ***Turning on DIIS***
  2  -4342.1535110644  -0.125694601855 0.08099391  0.00090814  0.0514917 0.0000
  3  -4342.3576775333  -0.204166468890 0.03640593  0.00026573  0.0380302 0.0000
  4  -4342.3959447417  -0.038267208452 0.01054504  0.00010267  0.0075833 0.0000
  5  -4342.3978169046  -0.001872162861 0.00519093  0.00004765  0.0041019 0.0000
                      *** Initiating the SOSCF procedure ***
                           *** Shutting down DIIS ***
                      *** Re-Reading the Fockian *** 
                      *** Removing any level shift *** 
ITER      Energy       Delta-E        Grad      Rot      Max-DP    RMS-DP
  6  -4342.39845825  -0.0006413408  0.002237  0.002237  0.002129  0.000029
               *** Restarting incremental Fock matrix formation ***
  7  -4342.39872013  -0.0002618806  0.001477  0.006987  0.004397  0.000060
  8  -4342.39884209  -0.0001219674  0.000633  0.008182  0.002675  0.000043
  9  -4342.39887231  -0.0000302156  0.000326  0.001639  0.002316  0.000030
 10  -4342.39888794  -0.0000156342  0.000099  0.000438  0.000321  0.000005
 11  -4342.39888820  -0.0000002525  0.000057  0.000221  0.000201  0.000003
 12  -4342.39888895  -0.0000007541  0.000017  0.000112  0.000141  0.000001
 13  -4342.39888900  -0.0000000507  0.000008  0.000037  0.000147  0.000001
 14  -4342.39888909  -0.0000000882  0.000004  0.000014  0.000193  0.000001
                  ***Gradient check signals convergence***
              ***Rediagonalizing the Fockian in SOSCF/NRSCF***

               *****************************************************
               *                     SUCCESS                       *
               *           SCF CONVERGED AFTER  15 CYCLES          *
               *****************************************************

Old exchange energy                            =   -103.318088765 Eh
New exchange energy                            =   -103.320706079 Eh
Exchange energy change after final integration =     -0.002617314 Eh
Total energy after final integration           =  -4342.401506484 Eh
Final COS-X integration done in                =    36.187 sec

----------------
TOTAL SCF ENERGY
----------------

Total Energy       :        -4342.40150648 Eh         -118162.75227 eV

Components:
Nuclear Repulsion  :         4610.48038057 Eh          125457.54929 eV
Electronic Energy  :        -8952.88188706 Eh         -243620.30156 eV
One Electron Energy:       -15151.76433693 Eh         -412300.46856 eV
Two Electron Energy:         6198.88244987 Eh          168680.16700 eV

Virial components:
Potential Energy   :        -8672.62437395 Eh         -235994.10692 eV
Kinetic Energy     :         4330.22286746 Eh          117831.35465 eV
Virial Ratio       :            2.00281247


DFT components:
N(Alpha)           :      155.999989386711 electrons
N(Beta)            :      155.999989386711 electrons
N(Total)           :      311.999978773422 electrons
E(XC)              :     -265.395701191008 Eh       

---------------
SCF CONVERGENCE
---------------

  Last Energy change         ...   -8.1001e-08  Tolerance :   1.0000e-08
  Last MAX-Density change    ...    9.8396e-14  Tolerance :   1.0000e-07
  Last RMS-Density change    ...    3.4760e-16  Tolerance :   5.0000e-09
  Last Orbital Gradient      ...    1.9692e-06  Tolerance :   1.0000e-05
  Last Orbital Rotation      ...    4.6044e-06  Tolerance :   1.0000e-05

             **** THE GBW FILE WAS UPDATED (total.gbw) ****
             **** DENSITY FILE WAS UPDATED (total.scfp.tmp) ****
             **** ENERGY FILE WAS UPDATED (total.en.tmp) ****
----------------
ORBITAL ENERGIES
----------------

  NO   OCC          E(Eh)            E(eV) 
   0   2.0000     -89.019369     -2422.3402 
   1   2.0000     -89.011918     -2422.1374 
   2   2.0000     -89.001343     -2421.8497 
   3   2.0000     -88.996688     -2421.7230 
   4   2.0000     -88.996004     -2421.7044 
   5   2.0000     -88.992584     -2421.6113 
   6   2.0000     -88.985095     -2421.4075 
   7   2.0000     -88.984869     -2421.4014 
   8   2.0000     -14.481697      -394.0670 
   9   2.0000     -14.477181      -393.9441 
  10   2.0000     -14.476973      -393.9385 
  11   2.0000     -14.476970      -393.9384 
  12   2.0000     -14.468265      -393.7015 
  13   2.0000     -10.389127      -282.7025 
  14   2.0000     -10.388948      -282.6977 
  15   2.0000     -10.383131      -282.5394 
  16   2.0000     -10.377574      -282.3882 
  17   2.0000     -10.366856      -282.0965 
  18   2.0000     -10.365542      -282.0607 
  19   2.0000     -10.363175      -281.9963 
  20   2.0000     -10.360545      -281.9248 
  21   2.0000     -10.360430      -281.9216 
  22   2.0000     -10.359811      -281.9048 
  23   2.0000     -10.354625      -281.7637 
  24   2.0000     -10.338993      -281.3383 
  25   2.0000     -10.334834      -281.2251 
  26   2.0000     -10.322148      -280.8799 
  27   2.0000     -10.309134      -280.5258 
  28   2.0000     -10.301890      -280.3287 
  29   2.0000     -10.299743      -280.2703 
  30   2.0000     -10.297239      -280.2021 
  31   2.0000     -10.294059      -280.1156 
  32   2.0000     -10.293401      -280.0977 
  33   2.0000     -10.293322      -280.0955 
  34   2.0000     -10.292509      -280.0734 
  35   2.0000     -10.282901      -279.8120 
  36   2.0000      -8.115495      -220.8338 
  37   2.0000      -8.108172      -220.6346 
  38   2.0000      -8.097510      -220.3444 
  39   2.0000      -8.092598      -220.2108 
  40   2.0000      -8.091847      -220.1903 
  41   2.0000      -8.088528      -220.1000 
  42   2.0000      -8.081501      -219.9088 
  43   2.0000      -8.081285      -219.9029 
  44   2.0000      -6.068682      -165.1372 
  45   2.0000      -6.064754      -165.0303 
  46   2.0000      -6.062429      -164.9671 
  47   2.0000      -6.061276      -164.9357 
  48   2.0000      -6.057270      -164.8267 
  49   2.0000      -6.055276      -164.7724 
  50   2.0000      -6.051647      -164.6737 
  51   2.0000      -6.047224      -164.5533 
  52   2.0000      -6.046939      -164.5456 
  53   2.0000      -6.046201      -164.5255 
  54   2.0000      -6.042996      -164.4383 
  55   2.0000      -6.042906      -164.4358 
  56   2.0000      -6.042766      -164.4320 
  57   2.0000      -6.041995      -164.4110 
  58   2.0000      -6.038466      -164.3150 
  59   2.0000      -6.037430      -164.2868 
  60   2.0000      -6.036677      -164.2663 
  61   2.0000      -6.036112      -164.2510 
  62   2.0000      -6.035910      -164.2455 
  63   2.0000      -6.033477      -164.1793 
  64   2.0000      -6.031837      -164.1346 
  65   2.0000      -6.031625      -164.1289 
  66   2.0000      -6.025745      -163.9689 
  67   2.0000      -6.025518      -163.9627 
  68   2.0000      -1.164898       -31.6985 
  69   2.0000      -1.154134       -31.4056 
  70   2.0000      -1.114305       -30.3218 
  71   2.0000      -1.032229       -28.0884 
  72   2.0000      -1.018216       -27.7071 
  73   2.0000      -0.997941       -27.1553 
  74   2.0000      -0.984285       -26.7838 
  75   2.0000      -0.974560       -26.5191 
  76   2.0000      -0.969919       -26.3928 
  77   2.0000      -0.952194       -25.9105 
  78   2.0000      -0.940023       -25.5793 
  79   2.0000      -0.922635       -25.1062 
  80   2.0000      -0.908967       -24.7342 
  81   2.0000      -0.907954       -24.7067 
  82   2.0000      -0.903376       -24.5821 
  83   2.0000      -0.887377       -24.1468 
  84   2.0000      -0.880308       -23.9544 
  85   2.0000      -0.854881       -23.2625 
  86   2.0000      -0.848263       -23.0824 
  87   2.0000      -0.847651       -23.0658 
  88   2.0000      -0.845706       -23.0128 
  89   2.0000      -0.789817       -21.4920 
  90   2.0000      -0.783402       -21.3174 
  91   2.0000      -0.777973       -21.1697 
  92   2.0000      -0.750957       -20.4346 
  93   2.0000      -0.731689       -19.9103 
  94   2.0000      -0.725601       -19.7446 
  95   2.0000      -0.722745       -19.6669 
  96   2.0000      -0.718259       -19.5448 
  97   2.0000      -0.691153       -18.8072 
  98   2.0000      -0.677945       -18.4478 
  99   2.0000      -0.667191       -18.1552 
 100   2.0000      -0.650590       -17.7035 
 101   2.0000      -0.644932       -17.5495 
 102   2.0000      -0.644079       -17.5263 
 103   2.0000      -0.635445       -17.2913 
 104   2.0000      -0.621604       -16.9147 
 105   2.0000      -0.616918       -16.7872 
 106   2.0000      -0.586991       -15.9728 
 107   2.0000      -0.581162       -15.8142 
 108   2.0000      -0.574323       -15.6281 
 109   2.0000      -0.572411       -15.5761 
 110   2.0000      -0.565798       -15.3961 
 111   2.0000      -0.558597       -15.2002 
 112   2.0000      -0.556202       -15.1350 
 113   2.0000      -0.551000       -14.9935 
 114   2.0000      -0.550139       -14.9700 
 115   2.0000      -0.547042       -14.8858 
 116   2.0000      -0.546467       -14.8701 
 117   2.0000      -0.540757       -14.7147 
 118   2.0000      -0.538257       -14.6467 
 119   2.0000      -0.530532       -14.4365 
 120   2.0000      -0.528582       -14.3835 
 121   2.0000      -0.525582       -14.3018 
 122   2.0000      -0.520571       -14.1655 
 123   2.0000      -0.503107       -13.6902 
 124   2.0000      -0.500866       -13.6293 
 125   2.0000      -0.498169       -13.5559 
 126   2.0000      -0.483739       -13.1632 
 127   2.0000      -0.476343       -12.9619 
 128   2.0000      -0.475353       -12.9350 
 129   2.0000      -0.473141       -12.8748 
 130   2.0000      -0.466252       -12.6874 
 131   2.0000      -0.457936       -12.4611 
 132   2.0000      -0.457291       -12.4435 
 133   2.0000      -0.453682       -12.3453 
 134   2.0000      -0.447579       -12.1792 
 135   2.0000      -0.444224       -12.0879 
 136   2.0000      -0.434511       -11.8236 
 137   2.0000      -0.425527       -11.5792 
 138   2.0000      -0.423079       -11.5126 
 139   2.0000      -0.416258       -11.3270 
 140   2.0000      -0.410228       -11.1629 
 141   2.0000      -0.407630       -11.0922 
 142   2.0000      -0.406116       -11.0510 
 143   2.0000      -0.396542       -10.7905 
 144   2.0000      -0.392757       -10.6875 
 145   2.0000      -0.386522       -10.5178 
 146   2.0000      -0.382496       -10.4082 
 147   2.0000      -0.374022       -10.1777 
 148   2.0000      -0.372266       -10.1299 
 149   2.0000      -0.358112        -9.7447 
 150   2.0000      -0.352817        -9.6006 
 151   2.0000      -0.334495        -9.1021 
 152   2.0000      -0.308028        -8.3819 
 153   2.0000      -0.299203        -8.1417 
 154   2.0000      -0.295797        -8.0491 
 155   2.0000      -0.253321        -6.8932 
 156   0.0000      -0.041973        -1.1421 
 157   0.0000      -0.003281        -0.0893 
 158   0.0000       0.019675         0.5354 
 159   0.0000       0.024675         0.6714 
 160   0.0000       0.041111         1.1187 
 161   0.0000       0.045411         1.2357 
 162   0.0000       0.047532         1.2934 
 163   0.0000       0.054595         1.4856 
 164   0.0000       0.055389         1.5072 
 165   0.0000       0.056784         1.5452 
 166   0.0000       0.064761         1.7622 
 167   0.0000       0.076448         2.0802 
 168   0.0000       0.077481         2.1084 
 169   0.0000       0.081156         2.2084 
 170   0.0000       0.088111         2.3976 
 171   0.0000       0.096994         2.6393 
 172   0.0000       0.104633         2.8472 
 173   0.0000       0.108412         2.9500 
 174   0.0000       0.112239         3.0542 
 175   0.0000       0.117217         3.1896 
 176   0.0000       0.118815         3.2331 
 177   0.0000       0.121649         3.3102 
 178   0.0000       0.127052         3.4573 
 179   0.0000       0.130356         3.5472 
 180   0.0000       0.133193         3.6244 
 181   0.0000       0.141269         3.8441 
 182   0.0000       0.144342         3.9277 
 183   0.0000       0.147420         4.0115 
 184   0.0000       0.155452         4.2301 
 185   0.0000       0.157174         4.2769 
 186   0.0000       0.159126         4.3300 
 187   0.0000       0.163643         4.4529 
 188   0.0000       0.165298         4.4980 
 189   0.0000       0.170454         4.6383 
 190   0.0000       0.173423         4.7191 
 191   0.0000       0.179173         4.8755 
 192   0.0000       0.184505         5.0206 
 193   0.0000       0.186699         5.0803 
 194   0.0000       0.195560         5.3214 
 195   0.0000       0.201537         5.4841 
 196   0.0000       0.205780         5.5996 
 197   0.0000       0.210169         5.7190 
 198   0.0000       0.217318         5.9135 
 199   0.0000       0.224894         6.1197 
 200   0.0000       0.228363         6.2141 
 201   0.0000       0.232366         6.3230 
 202   0.0000       0.235321         6.4034 
 203   0.0000       0.239344         6.5129 
 204   0.0000       0.244871         6.6633 
 205   0.0000       0.247153         6.7254 
 206   0.0000       0.254817         6.9339 
 207   0.0000       0.256099         6.9688 
 208   0.0000       0.258503         7.0342 
 209   0.0000       0.262867         7.1530 
 210   0.0000       0.266168         7.2428 
 211   0.0000       0.267544         7.2803 
 212   0.0000       0.271982         7.4010 
 213   0.0000       0.273966         7.4550 
 214   0.0000       0.274519         7.4701 
 215   0.0000       0.281721         7.6660 
 216   0.0000       0.284387         7.7386 
 217   0.0000       0.286653         7.8002 
 218   0.0000       0.289304         7.8724 
 219   0.0000       0.289405         7.8751 
 220   0.0000       0.291071         7.9205 
 221   0.0000       0.291439         7.9305 
 222   0.0000       0.293358         7.9827 
 223   0.0000       0.296697         8.0735 
 224   0.0000       0.297607         8.0983 
 225   0.0000       0.299037         8.1372 
 226   0.0000       0.301670         8.2089 
 227   0.0000       0.302936         8.2433 
 228   0.0000       0.305638         8.3168 
 229   0.0000       0.309351         8.4179 
 230   0.0000       0.314315         8.5530 
 231   0.0000       0.318650         8.6709 
 232   0.0000       0.320931         8.7330 
 233   0.0000       0.323464         8.8019 
 234   0.0000       0.325966         8.8700 
 235   0.0000       0.329032         8.9534 
 236   0.0000       0.329359         8.9623 
 237   0.0000       0.332920         9.0592 
 238   0.0000       0.334531         9.1030 
 239   0.0000       0.337131         9.1738 
 240   0.0000       0.338483         9.2106 
 241   0.0000       0.341347         9.2885 
 242   0.0000       0.343603         9.3499 
 243   0.0000       0.344264         9.3679 
 244   0.0000       0.350290         9.5319 
 245   0.0000       0.355661         9.6780 
 246   0.0000       0.356771         9.7082 
 247   0.0000       0.359905         9.7935 
 248   0.0000       0.362249         9.8573 
 249   0.0000       0.365219         9.9381 
 250   0.0000       0.365962         9.9583 
 251   0.0000       0.370691        10.0870 
 252   0.0000       0.373744        10.1701 
 253   0.0000       0.378752        10.3064 
 254   0.0000       0.382116        10.3979 
 255   0.0000       0.384681        10.4677 
 256   0.0000       0.386460        10.5161 
 257   0.0000       0.387940        10.5564 
 258   0.0000       0.389342        10.5945 
 259   0.0000       0.389995        10.6123 
 260   0.0000       0.395540        10.7632 
 261   0.0000       0.396518        10.7898 
 262   0.0000       0.399007        10.8575 
 263   0.0000       0.400788        10.9060 
 264   0.0000       0.402904        10.9636 
 265   0.0000       0.406161        11.0522 
 266   0.0000       0.409449        11.1417 
 267   0.0000       0.414001        11.2655 
 268   0.0000       0.417361        11.3570 
 269   0.0000       0.419493        11.4150 
 270   0.0000       0.427438        11.6312 
 271   0.0000       0.429291        11.6816 
 272   0.0000       0.432223        11.7614 
 273   0.0000       0.435424        11.8485 
 274   0.0000       0.439485        11.9590 
 275   0.0000       0.440900        11.9975 
 276   0.0000       0.441600        12.0165 
 277   0.0000       0.441802        12.0220 
 278   0.0000       0.444033        12.0828 
 279   0.0000       0.445105        12.1119 
 280   0.0000       0.453359        12.3365 
 281   0.0000       0.460479        12.5303 
 282   0.0000       0.463218        12.6048 
 283   0.0000       0.465004        12.6534 
 284   0.0000       0.466456        12.6929 
 285   0.0000       0.467831        12.7303 
 286   0.0000       0.469103        12.7649 
 287   0.0000       0.470149        12.7934 
 288   0.0000       0.474110        12.9012 
 289   0.0000       0.478083        13.0093 
 290   0.0000       0.479024        13.0349 
 291   0.0000       0.482720        13.1355 
 292   0.0000       0.482923        13.1410 
 293   0.0000       0.487187        13.2570 
 294   0.0000       0.488612        13.2958 
 295   0.0000       0.490289        13.3414 
 296   0.0000       0.493084        13.4175 
 297   0.0000       0.497342        13.5334 
 298   0.0000       0.499811        13.6005 
 299   0.0000       0.501319        13.6416 
 300   0.0000       0.502575        13.6758 
 301   0.0000       0.509386        13.8611 
 302   0.0000       0.510152        13.8819 
 303   0.0000       0.514074        13.9887 
 304   0.0000       0.515867        14.0375 
 305   0.0000       0.518864        14.1190 
 306   0.0000       0.521257        14.1841 
 307   0.0000       0.523044        14.2328 
 308   0.0000       0.525434        14.2978 
 309   0.0000       0.528828        14.3901 
 310   0.0000       0.531097        14.4519 
 311   0.0000       0.532989        14.5034 
 312   0.0000       0.537549        14.6275 
 313   0.0000       0.538217        14.6456 
 314   0.0000       0.542607        14.7651 
 315   0.0000       0.547445        14.8967 
 316   0.0000       0.548746        14.9321 
 317   0.0000       0.552554        15.0358 
 318   0.0000       0.554173        15.0798 
 319   0.0000       0.557587        15.1727 
 320   0.0000       0.558578        15.1997 
 321   0.0000       0.565018        15.3749 
 322   0.0000       0.572132        15.5685 
 323   0.0000       0.576126        15.6772 
 324   0.0000       0.576276        15.6813 
 325   0.0000       0.577123        15.7043 
 326   0.0000       0.580245        15.7893 
 327   0.0000       0.586066        15.9477 
 328   0.0000       0.586654        15.9637 
 329   0.0000       0.589245        16.0342 
 330   0.0000       0.595611        16.2074 
 331   0.0000       0.600649        16.3445 
 332   0.0000       0.603946        16.4342 
 333   0.0000       0.607472        16.5301 
 334   0.0000       0.612738        16.6735 
 335   0.0000       0.614780        16.7290 
 336   0.0000       0.620673        16.8894 
 337   0.0000       0.625996        17.0342 
 338   0.0000       0.628445        17.1009 
 339   0.0000       0.632064        17.1993 
 340   0.0000       0.633555        17.2399 
 341   0.0000       0.640980        17.4419 
 342   0.0000       0.645172        17.5560 
 343   0.0000       0.647158        17.6101 
 344   0.0000       0.655668        17.8416 
 345   0.0000       0.657929        17.9031 
 346   0.0000       0.661830        18.0093 
 347   0.0000       0.663503        18.0548 
 348   0.0000       0.672544        18.3008 
 349   0.0000       0.672812        18.3081 
 350   0.0000       0.678538        18.4640 
 351   0.0000       0.679429        18.4882 
 352   0.0000       0.681802        18.5528 
 353   0.0000       0.684814        18.6347 
 354   0.0000       0.688481        18.7345 
 355   0.0000       0.693242        18.8641 
 356   0.0000       0.694536        18.8993 
 357   0.0000       0.696945        18.9648 
 358   0.0000       0.699112        19.0238 
 359   0.0000       0.700443        19.0600 
 360   0.0000       0.704116        19.1600 
 361   0.0000       0.705469        19.1968 
 362   0.0000       0.712568        19.3899 
 363   0.0000       0.713395        19.4125 
 364   0.0000       0.717526        19.5249 
 365   0.0000       0.722063        19.6483 
 366   0.0000       0.726196        19.7608 
 367   0.0000       0.729318        19.8457 
 368   0.0000       0.734495        19.9866 
 369   0.0000       0.736438        20.0395 
 370   0.0000       0.740547        20.1513 
 371   0.0000       0.744365        20.2552 
 372   0.0000       0.750449        20.4208 
 373   0.0000       0.752752        20.4834 
 374   0.0000       0.754498        20.5309 
 375   0.0000       0.756008        20.5720 
 376   0.0000       0.761403        20.7188 
 377   0.0000       0.765146        20.8207 
 378   0.0000       0.768792        20.9199 
 379   0.0000       0.777940        21.1688 
 380   0.0000       0.778942        21.1961 
 381   0.0000       0.783087        21.3089 
 382   0.0000       0.789402        21.4807 
 383   0.0000       0.792632        21.5686 
 384   0.0000       0.795241        21.6396 
 385   0.0000       0.798590        21.7307 
 386   0.0000       0.804072        21.8799 
 387   0.0000       0.811171        22.0731 
 388   0.0000       0.813102        22.1256 
 389   0.0000       0.813963        22.1491 
 390   0.0000       0.818924        22.2840 
 391   0.0000       0.820924        22.3385 
 392   0.0000       0.823305        22.4033 
 393   0.0000       0.824497        22.4357 
 394   0.0000       0.833279        22.6747 
 395   0.0000       0.834188        22.6994 
 396   0.0000       0.838015        22.8035 
 397   0.0000       0.840787        22.8790 
 398   0.0000       0.841686        22.9034 
 399   0.0000       0.847603        23.0645 
 400   0.0000       0.852796        23.2058 
 401   0.0000       0.854253        23.2454 
 402   0.0000       0.860254        23.4087 
 403   0.0000       0.863591        23.4995 
 404   0.0000       0.868701        23.6386 
 405   0.0000       0.870323        23.6827 
 406   0.0000       0.872195        23.7336 
 407   0.0000       0.880759        23.9667 
 408   0.0000       0.884103        24.0577 
 409   0.0000       0.887375        24.1467 
 410   0.0000       0.891074        24.2474 
 411   0.0000       0.892958        24.2986 
 412   0.0000       0.899455        24.4754 
 413   0.0000       0.900705        24.5094 
 414   0.0000       0.909009        24.7354 
 415   0.0000       0.913151        24.8481 
 416   0.0000       0.915629        24.9155 
 417   0.0000       0.920722        25.0541 
 418   0.0000       0.926100        25.2005 
 419   0.0000       0.927118        25.2282 
 420   0.0000       0.931421        25.3452 
 421   0.0000       0.936614        25.4866 
 422   0.0000       0.939804        25.5734 
 423   0.0000       0.944707        25.7068 
 424   0.0000       0.948474        25.8093 
 425   0.0000       0.950973        25.8773 
 426   0.0000       0.956675        26.0324 
 427   0.0000       0.958134        26.0722 
 428   0.0000       0.958465        26.0812 
 429   0.0000       0.967754        26.3339 
 430   0.0000       0.971244        26.4289 
 431   0.0000       0.974044        26.5051 
 432   0.0000       0.977808        26.6075 
 433   0.0000       0.981497        26.7079 
 434   0.0000       0.985471        26.8160 
 435   0.0000       0.989251        26.9189 
 436   0.0000       0.994730        27.0680 
 437   0.0000       0.999130        27.1877 
 438   0.0000       1.008383        27.4395 
 439   0.0000       1.009134        27.4599 
 440   0.0000       1.016961        27.6729 
 441   0.0000       1.026962        27.9451 
 442   0.0000       1.029444        28.0126 
 443   0.0000       1.032845        28.1052 
 444   0.0000       1.035940        28.1894 
 445   0.0000       1.045628        28.4530 
 446   0.0000       1.050922        28.5970 
 447   0.0000       1.060964        28.8703 
 448   0.0000       1.062269        28.9058 
 449   0.0000       1.062684        28.9171 
 450   0.0000       1.070895        29.1405 
 451   0.0000       1.073861        29.2212 
 452   0.0000       1.077678        29.3251 
 453   0.0000       1.080871        29.4120 
 454   0.0000       1.081205        29.4211 
 455   0.0000       1.090084        29.6627 
 456   0.0000       1.097837        29.8737 
 457   0.0000       1.106923        30.1209 
 458   0.0000       1.111970        30.2582 
 459   0.0000       1.116317        30.3765 
 460   0.0000       1.127378        30.6775 
 461   0.0000       1.136680        30.9306 
 462   0.0000       1.139472        31.0066 
 463   0.0000       1.146877        31.2081 
 464   0.0000       1.158174        31.5155 
 465   0.0000       1.160779        31.5864 
 466   0.0000       1.165094        31.7038 
 467   0.0000       1.172962        31.9179 
 468   0.0000       1.173621        31.9358 
 469   0.0000       1.176952        32.0265 
 470   0.0000       1.186514        32.2867 
 471   0.0000       1.193903        32.4877 
 472   0.0000       1.200539        32.6683 
 473   0.0000       1.208169        32.8760 
 474   0.0000       1.210079        32.9279 
 475   0.0000       1.217843        33.1392 
 476   0.0000       1.222252        33.2592 
 477   0.0000       1.225088        33.3363 
 478   0.0000       1.227790        33.4099 
 479   0.0000       1.232068        33.5263 
 480   0.0000       1.233422        33.5631 
 481   0.0000       1.238330        33.6967 
 482   0.0000       1.247258        33.9396 
 483   0.0000       1.259575        34.2748 
 484   0.0000       1.262123        34.3441 
 485   0.0000       1.266763        34.4704 
 486   0.0000       1.273301        34.6483 
 487   0.0000       1.281051        34.8592 
 488   0.0000       1.286497        35.0074 
 489   0.0000       1.292807        35.1791 
 490   0.0000       1.297592        35.3093 
 491   0.0000       1.300758        35.3954 
 492   0.0000       1.305593        35.5270 
 493   0.0000       1.314471        35.7686 
 494   0.0000       1.319707        35.9110 
 495   0.0000       1.327487        36.1227 
 496   0.0000       1.332571        36.2611 
 497   0.0000       1.342503        36.5314 
 498   0.0000       1.347575        36.6694 
 499   0.0000       1.349240        36.7147 
 500   0.0000       1.356762        36.9194 
 501   0.0000       1.358101        36.9558 
 502   0.0000       1.363588        37.1051 
 503   0.0000       1.365988        37.1704 
 504   0.0000       1.371462        37.3194 
 505   0.0000       1.376607        37.4594 
 506   0.0000       1.380354        37.5613 
 507   0.0000       1.392553        37.8933 
 508   0.0000       1.402954        38.1763 
 509   0.0000       1.405044        38.2332 
 510   0.0000       1.415798        38.5258 
 511   0.0000       1.424273        38.7564 
 512   0.0000       1.424805        38.7709 
 513   0.0000       1.432369        38.9767 
 514   0.0000       1.441002        39.2117 
 515   0.0000       1.446632        39.3648 
 516   0.0000       1.456996        39.6469 
 517   0.0000       1.462733        39.8030 
 518   0.0000       1.475608        40.1533 
 519   0.0000       1.478621        40.2353 
 520   0.0000       1.480629        40.2900 
 521   0.0000       1.492739        40.6195 
 522   0.0000       1.493084        40.6289 
 523   0.0000       1.494778        40.6750 
 524   0.0000       1.499628        40.8069 
 525   0.0000       1.503569        40.9142 
 526   0.0000       1.504474        40.9388 
 527   0.0000       1.507338        41.0168 
 528   0.0000       1.509882        41.0860 
 529   0.0000       1.512962        41.1698 
 530   0.0000       1.516106        41.2553 
 531   0.0000       1.520018        41.3618 
 532   0.0000       1.525696        41.5163 
 533   0.0000       1.530197        41.6388 
 534   0.0000       1.537006        41.8240 
 535   0.0000       1.543027        41.9879 
 536   0.0000       1.549203        42.1560 
 537   0.0000       1.549481        42.1635 
 538   0.0000       1.555732        42.3336 
 539   0.0000       1.559311        42.4310 
 540   0.0000       1.560778        42.4709 
 541   0.0000       1.564550        42.5736 
 542   0.0000       1.569857        42.7180 
 543   0.0000       1.577096        42.9150 
 544   0.0000       1.584705        43.1220 
 545   0.0000       1.587682        43.2030 
 546   0.0000       1.588888        43.2358 
 547   0.0000       1.590545        43.2809 
 548   0.0000       1.591744        43.3136 
 549   0.0000       1.598706        43.5030 
 550   0.0000       1.599235        43.5174 
 551   0.0000       1.602684        43.6112 
 552   0.0000       1.606010        43.7018 
 553   0.0000       1.608305        43.7642 
 554   0.0000       1.610957        43.8364 
 555   0.0000       1.612937        43.8903 
 556   0.0000       1.613159        43.8963 
 557   0.0000       1.616604        43.9900 
 558   0.0000       1.620341        44.0917 
 559   0.0000       1.621015        44.1101 
 560   0.0000       1.625211        44.2242 
 561   0.0000       1.626597        44.2620 
 562   0.0000       1.633367        44.4462 
 563   0.0000       1.635101        44.4934 
 564   0.0000       1.637092        44.5476 
 565   0.0000       1.638886        44.5963 
 566   0.0000       1.640315        44.6353 
 567   0.0000       1.640900        44.6512 
 568   0.0000       1.643064        44.7101 
 569   0.0000       1.647407        44.8282 
 570   0.0000       1.650656        44.9166 
 571   0.0000       1.653092        44.9829 
 572   0.0000       1.657774        45.1103 
 573   0.0000       1.662883        45.2494 
 574   0.0000       1.668452        45.4009 
 575   0.0000       1.669951        45.4417 
 576   0.0000       1.673658        45.5425 
 577   0.0000       1.679479        45.7009 
 578   0.0000       1.681294        45.7503 
 579   0.0000       1.684399        45.8348 
 580   0.0000       1.688298        45.9409 
 581   0.0000       1.690416        45.9986 
 582   0.0000       1.694413        46.1073 
 583   0.0000       1.694793        46.1177 
 584   0.0000       1.696002        46.1506 
 585   0.0000       1.699786        46.2535 
 586   0.0000       1.701604        46.3030 
 587   0.0000       1.705241        46.4020 
 588   0.0000       1.706422        46.4341 
 589   0.0000       1.711998        46.5858 
 590   0.0000       1.714635        46.6576 
 591   0.0000       1.715674        46.6859 
 592   0.0000       1.721299        46.8389 
 593   0.0000       1.721971        46.8572 
 594   0.0000       1.727561        47.0093 
 595   0.0000       1.734062        47.1862 
 596   0.0000       1.736857        47.2623 
 597   0.0000       1.739754        47.3411 
 598   0.0000       1.742853        47.4254 
 599   0.0000       1.745496        47.4974 
 600   0.0000       1.748952        47.5914 
 601   0.0000       1.755574        47.7716 
 602   0.0000       1.758677        47.8560 
 603   0.0000       1.767514        48.0965 
 604   0.0000       1.768809        48.1318 
 605   0.0000       1.772437        48.2305 
 606   0.0000       1.775700        48.3193 
 607   0.0000       1.777398        48.3654 
 608   0.0000       1.780141        48.4401 
 609   0.0000       1.783409        48.5290 
 610   0.0000       1.790855        48.7316 
 611   0.0000       1.795000        48.8444 
 612   0.0000       1.796821        48.8940 
 613   0.0000       1.799129        48.9568 
 614   0.0000       1.802946        49.0607 
 615   0.0000       1.806305        49.1520 
 616   0.0000       1.809266        49.2326 
 617   0.0000       1.810414        49.2639 
 618   0.0000       1.813808        49.3562 
 619   0.0000       1.818104        49.4731 
 620   0.0000       1.821089        49.5544 
 621   0.0000       1.825509        49.6746 
 622   0.0000       1.829395        49.7804 
 623   0.0000       1.834153        49.9098 
 624   0.0000       1.843300        50.1588 
 625   0.0000       1.849212        50.3196 
 626   0.0000       1.853721        50.4423 
 627   0.0000       1.855190        50.4823 
 628   0.0000       1.856355        50.5140 
 629   0.0000       1.862443        50.6797 
 630   0.0000       1.866452        50.7888 
 631   0.0000       1.869707        50.8773 
 632   0.0000       1.872931        50.9650 
 633   0.0000       1.883120        51.2423 
 634   0.0000       1.884180        51.2711 
 635   0.0000       1.885837        51.3162 
 636   0.0000       1.889781        51.4236 
 637   0.0000       1.892181        51.4889 
 638   0.0000       1.893336        51.5203 
 639   0.0000       1.900170        51.7062 
 640   0.0000       1.908476        51.9323 
 641   0.0000       1.909381        51.9569 
 642   0.0000       1.910579        51.9895 
 643   0.0000       1.915249        52.1166 
 644   0.0000       1.916115        52.1401 
 645   0.0000       1.922918        52.3253 
 646   0.0000       1.925481        52.3950 
 647   0.0000       1.926676        52.4275 
 648   0.0000       1.927696        52.4553 
 649   0.0000       1.933017        52.6001 
 650   0.0000       1.935620        52.6709 
 651   0.0000       1.937302        52.7167 
 652   0.0000       1.947894        53.0049 
 653   0.0000       1.950590        53.0782 
 654   0.0000       1.954799        53.1928 
 655   0.0000       1.959202        53.3126 
 656   0.0000       1.964096        53.4458 
 657   0.0000       1.966839        53.5204 
 658   0.0000       1.972289        53.6687 
 659   0.0000       1.975159        53.7468 
 660   0.0000       1.980278        53.8861 
 661   0.0000       1.990378        54.1609 
 662   0.0000       1.991502        54.1915 
 663   0.0000       1.999144        54.3995 
 664   0.0000       2.003205        54.5100 
 665   0.0000       2.004535        54.5462 
 666   0.0000       2.006608        54.6026 
 667   0.0000       2.009018        54.6682 
 668   0.0000       2.014395        54.8145 
 669   0.0000       2.019986        54.9666 
 670   0.0000       2.023712        55.0680 
 671   0.0000       2.026865        55.1538 
 672   0.0000       2.030584        55.2550 
 673   0.0000       2.034300        55.3561 
 674   0.0000       2.040950        55.5371 
 675   0.0000       2.049239        55.7626 
 676   0.0000       2.052199        55.8432 
 677   0.0000       2.053783        55.8863 
 678   0.0000       2.057349        55.9833 
 679   0.0000       2.065353        56.2011 
 680   0.0000       2.069400        56.3112 
 681   0.0000       2.076037        56.4918 
 682   0.0000       2.083820        56.7036 
 683   0.0000       2.084205        56.7141 
 684   0.0000       2.094103        56.9834 
 685   0.0000       2.098958        57.1156 
 686   0.0000       2.101984        57.1979 
 687   0.0000       2.109017        57.3893 
 688   0.0000       2.114096        57.5275 
 689   0.0000       2.118603        57.6501 
 690   0.0000       2.123691        57.7886 
 691   0.0000       2.132531        58.0291 
 692   0.0000       2.135050        58.0977 
 693   0.0000       2.153389        58.5967 
 694   0.0000       2.157693        58.7138 
 695   0.0000       2.164384        58.8959 
 696   0.0000       2.169027        59.0222 
 697   0.0000       2.174568        59.1730 
 698   0.0000       2.177272        59.2466 
 699   0.0000       2.179394        59.3043 
[...]
 257   9.125     135.9   0.496200   0.407562  62.796942  50.480740     0.09 (  68->  96)    0.05 (  68->  98)    0.04 (  82->  97)
 258   9.131     135.8   0.008172   0.006639  -32.963294  -31.068856     0.07 (  43->  85)    0.07 (  62->  85)    0.04 (  59->  93)
 259   9.146     135.6   0.123697   0.106854  121.172051  115.866004     0.03 (  80->  94)    0.03 (  82->  97)    0.03 (  83->  98)
 260   9.161     135.3   0.023205   0.021635  10.969416  10.204422     0.04 (  82->  97)    0.03 (  83->  98)    0.03 (  83->  97)
 261   9.168     135.2   0.076606   0.064702  34.910079  32.055873     0.14 (  84-> 115)    0.06 (  82-> 115)    0.06 (  82->  98)
 262   9.171     135.2   0.067390   0.055302  -18.531574  -19.767711     0.08 (  84-> 115)    0.07 (  59->  89)    0.07 (  59->  87)
 263   9.174     135.1   0.009166   0.007936   1.411440   0.990342     0.10 (  84-> 107)    0.04 (  84-> 113)    0.02 (  84-> 125)
 264   9.193     134.9   0.036941   0.030514   6.213640   6.093976     0.28 (  59->  89)    0.11 (  84-> 115)    0.08 (  59->  87)
 265   9.203     134.7   0.031015   0.023814  11.395134  11.868918     0.03 (  62->  85)    0.03 (  82->  98)    0.03 (  83->  96)
 266   9.208     134.6   0.017505   0.014449  -30.560389  -28.676031     0.05 (  76->  87)    0.04 (  82->  98)    0.03 (  70->  90)
 267   9.209     134.6   0.007617   0.006336  -14.113396  -13.562272     0.04 (  62->  85)    0.04 (  51->  85)    0.03 (  76->  87)
 268   9.219     134.5   0.012030   0.011815  -9.648564  -9.160465     0.04 (  78->  88)    0.04 (  80->  95)    0.03 (  77->  86)
 269   9.222     134.4   0.015406   0.014078  -13.802686  -14.138201     0.09 (  78->  88)    0.04 (  77->  86)    0.04 (  74->  86)
 270   9.238     134.2   0.107594   0.087158  41.266804  38.848503     0.07 (  76->  87)    0.03 (  58->  91)    0.03 (  59->  87)
 271   9.243     134.1   0.007231   0.005442   7.309190   6.806454     0.06 (  58->  91)    0.03 (  64->  91)    0.03 (  80->  91)
 272   9.251     134.0   0.026518   0.020852  -21.695226  -19.865354     0.02 (  57->  91)    0.02 (  58->  91)    0.02 (  82->  96)
 273   9.254     134.0   0.007186   0.005916  14.442476  14.068572     0.02 (  57->  91)    0.02 (  82-> 124)    0.02 (  76->  87)
 274   9.276     133.7   0.041234   0.037896  109.729116  101.821324     0.37 (  78-> 115)    0.08 (  69-> 115)    0.03 (  69->  92)
 275   9.279     133.6   0.062699   0.058444  -128.102911  -118.980308     0.18 (  78-> 115)    0.04 (  69-> 115)    0.03 (  74-> 101)
 276   9.285     133.5   0.016345   0.015051  14.991484  13.045348     0.05 (  78-> 115)    0.04 (  56->  91)    0.04 (  82->  98)
 277   9.292     133.4   0.014774   0.013796  15.805300  14.156890     0.03 (  63->  91)    0.02 (  53->  85)    0.02 (  50->  85)
 278   9.300     133.3   0.009045   0.007923  -0.193879  -0.297890     0.03 (  78-> 105)    0.02 (  78-> 116)    0.02 (  78->  90)
 279   9.302     133.3   0.002524   0.001942   7.518028   6.086335     0.37 (  75->  92)    0.10 (  76->  92)    0.06 (  75->  93)
 280   9.310     133.2   0.011271   0.008171  47.076154  40.940902     0.03 (  56->  91)    0.03 (  56->  88)    0.02 (  75->  92)
 281   9.318     133.1   0.047437   0.038769  -55.389819  -50.609276     0.05 (  61->  90)    0.04 (  60->  90)    0.03 (  61->  94)
 282   9.323     133.0   0.051397   0.041748  -45.690924  -42.221813     0.02 (  72-> 107)    0.02 (  78-> 106)    0.02 (  73-> 107)
 283   9.345     132.7   0.015068   0.015349   5.131941   5.101177     0.17 (  76->  87)    0.04 (  75->  87)    0.03 (  76-> 114)
 284   9.347     132.6   0.025581   0.021226  10.026508   9.583677     0.05 (  71-> 102)    0.05 (  68->  97)    0.04 (  61->  87)
 285   9.352     132.6   0.000779   0.000541  -6.317075  -5.228930     0.06 (  78->  90)    0.05 (  78-> 108)    0.03 (  78-> 116)
 286   9.367     132.4   0.005258   0.003936  -20.915184  -18.920574     0.03 (  74->  93)    0.03 (  67->  92)    0.03 (  71->  92)
 287   9.376     132.2   0.004281   0.003882  19.077876  18.633055     0.07 (  60->  85)    0.07 (  65->  85)    0.05 (  61->  85)
 288   9.388     132.1   0.008744   0.008292  -12.480903  -12.781862     0.05 (  81->  97)    0.03 (  78-> 116)    0.03 (  80->  90)
 289   9.391     132.0   0.012224   0.011594  -19.434476  -18.129459     0.10 (  81->  97)    0.06 (  81->  96)    0.05 (  83->  99)
 290   9.396     132.0   0.033063   0.031129  36.024340  34.786994     0.17 (  81->  97)    0.06 (  81->  96)    0.05 (  68-> 103)
 291   9.400     131.9   0.003200   0.002283  -10.941406  -9.929832     0.09 (  68-> 103)    0.09 (  66-> 103)    0.03 (  82->  99)
 292   9.410     131.8   0.013118   0.011146   1.434356   1.430004     0.18 (  81->  97)    0.04 (  81->  96)    0.01 (  81->  98)
 293   9.423     131.6   0.041716   0.032623   9.457706   9.763522     0.09 (  80->  92)    0.04 (  63->  92)    0.04 (  71->  92)
 294   9.429     131.5   0.012603   0.011865  16.522340  16.254025     0.05 (  81-> 126)    0.02 (  81-> 125)    0.02 (  55->  87)
 295   9.434     131.4   0.006761   0.004865  -12.907040  -9.350229     0.08 (  81-> 126)    0.05 (  81-> 125)    0.05 (  81-> 124)
 296   9.437     131.4   0.066242   0.056941  25.533662  23.861520     0.05 (  81->  98)    0.03 (  55->  87)    0.03 (  68->  98)
 297   9.448     131.2   0.013930   0.011673  34.743579  30.851077     0.09 (  81->  98)    0.05 (  81->  97)    0.03 (  67->  93)
 298   9.454     131.1   0.047083   0.039980  -113.658594  -104.555278     0.04 (  84-> 109)    0.03 (  84-> 108)    0.02 (  84-> 107)
 299   9.467     131.0   0.007164   0.006176  -5.744736  -5.259160     0.19 (  84-> 109)    0.06 (  84-> 108)    0.03 (  84-> 107)
 300   9.476     130.8   0.001302   0.001236  -3.705249  -3.631855     0.06 (  82->  99)    0.05 (  83->  99)    0.04 (  81->  98)
 301   9.482     130.8   0.016901   0.013517  -4.183794  -3.184509     0.09 (  55->  87)    0.04 (  81->  98)    0.02 (  75->  91)
 302   9.486     130.7   0.010867   0.009179  -12.396104  -11.857810     0.06 (  81->  98)    0.03 (  78->  90)    0.03 (  77->  89)
 303   9.493     130.6   0.071835   0.063991  -18.516645  -17.003221     0.10 (  81->  98)    0.03 (  81->  96)    0.02 (  76->  99)
 304   9.501     130.5   0.010846   0.009546   3.430445   2.830308     0.04 (  83-> 100)    0.03 (  55->  87)    0.03 (  81->  98)
 305   9.509     130.4   0.018959   0.015775  44.847964  40.145790     0.10 (  81->  98)    0.04 (  78-> 118)    0.03 (  81->  96)
 306   9.513     130.3   0.012461   0.011392  -18.056939  -17.390430     0.18 (  75->  91)    0.04 (  75->  88)    0.03 (  58->  85)
 307   9.522     130.2   0.022089   0.017922   0.727550   0.708728     0.03 (  78-> 118)    0.03 (  81->  98)    0.02 (  78-> 106)
 308   9.526     130.1   0.013900   0.011709   5.089892   5.029321     0.08 (  75->  91)    0.04 (  56->  85)    0.04 (  81-> 124)
 309   9.535     130.0   0.023446   0.019225   1.057875   2.155113     0.08 (  75->  91)    0.02 (  60->  90)    0.02 (  55->  87)
 310   9.538     130.0   0.015228   0.012637   3.200385   2.560596     0.04 (  78->  90)    0.04 (  78-> 106)    0.03 (  78-> 105)
 311   9.544     129.9   0.019237   0.018180   1.960885   2.271522     0.03 (  84-> 109)    0.02 (  73-> 104)    0.02 (  72-> 105)
 312   9.551     129.8   0.002359   0.001577  -11.117450  -9.898158     0.03 (  81-> 124)    0.02 (  79-> 107)    0.02 (  78->  90)
 313   9.558     129.7   0.017175   0.014738  25.858166  24.199896     0.04 (  76->  99)    0.03 (  55->  87)    0.02 (  60->  90)
 314   9.570     129.6   0.003569   0.003399  14.752269  14.984347     0.04 (  84-> 130)    0.03 (  81-> 124)    0.03 (  80-> 109)
 315   9.583     129.4   0.000901   0.000761   1.816682   1.918530     0.10 (  81-> 124)    0.03 (  79->  89)    0.03 (  81-> 125)
 316   9.591     129.3   0.000659   0.000373  -1.940454  -0.830693     0.03 (  81-> 124)    0.02 (  71-> 102)    0.02 (  71-> 105)
 317   9.600     129.2   0.004703   0.004185   0.298711  -1.125427     0.10 (  81-> 124)    0.04 (  81-> 125)    0.02 (  83-> 127)
 318   9.603     129.1   0.022545   0.018619   0.997633   1.263292     0.05 (  76->  99)    0.04 (  56->  91)    0.03 (  76-> 100)
 319   9.622     128.8   0.003605   0.003537  -12.031805  -11.866385     0.08 (  79->  89)    0.04 (  80->  89)    0.02 (  72->  87)
 320   9.629     128.8   0.018989   0.016350  -1.066572  -0.161591     0.05 (  59->  90)    0.04 (  75->  90)    0.04 (  55->  87)
 321   9.639     128.6   0.002037   0.001651  -6.572439  -6.592903     0.04 (  79->  90)    0.03 (  67->  90)    0.02 (  67->  95)
 322   9.648     128.5   0.006453   0.006420  -0.020607  -0.037763     0.18 (  79->  89)    0.07 (  80->  89)    0.04 (  74->  89)
 323   9.650     128.5   0.017901   0.012955  -15.506143  -12.723627     0.10 (  84-> 111)    0.04 (  84-> 114)    0.03 (  84-> 132)
 324   9.654     128.4   0.015171   0.012555   8.321738   7.431737     0.24 (  69->  86)    0.04 (  69->  88)    0.03 (  71->  86)
 325   9.661     128.3   0.002786   0.003017  -6.611276  -6.600757     0.07 (  83-> 102)    0.04 (  55->  87)    0.04 (  82-> 104)
 326   9.666     128.3   0.003378   0.002926  -10.599161  -9.939918     0.03 (  80->  98)    0.02 (  81->  98)    0.02 (  79-> 107)
 327   9.674     128.2   0.008943   0.007912  10.479724  11.374017     0.05 (  57->  85)    0.02 (  79->  89)    0.02 (  82-> 104)
 328   9.681     128.1   0.012433   0.010604   4.862338   4.964308     0.03 (  79->  89)    0.02 (  59->  90)    0.02 (  55->  85)
 329   9.683     128.0   0.036667   0.027868  27.438764  24.937419     0.05 (  69->  86)    0.03 (  84-> 111)    0.03 (  83-> 105)
 330   9.687     128.0   0.012182   0.009281  29.633286  25.463462     0.08 (  69->  86)    0.05 (  59->  90)    0.03 (  59->  94)
 331   9.691     127.9   0.035022   0.029201   0.900819  -0.671296     0.09 (  59->  90)    0.07 (  59->  94)    0.04 (  83-> 104)
 332   9.698     127.8   0.006749   0.006655  -6.040838  -7.633519     0.07 (  70-> 104)    0.05 (  70-> 102)    0.04 (  69->  86)
 333   9.709     127.7   0.003452   0.003331   2.827998   3.036855     0.08 (  70-> 102)    0.03 (  56->  85)    0.02 (  66-> 102)
 334   9.714     127.6   0.017278   0.015280  -14.862392  -12.559558     0.10 (  59->  90)    0.07 (  59->  94)    0.03 (  59->  95)
 335   9.719     127.6   0.009711   0.010326  -32.107010  -30.821157     0.04 (  59->  90)    0.03 (  59->  94)    0.02 (  84-> 111)
 336   9.731     127.4   0.007360   0.006580   4.409619   4.413744     0.05 (  65->  96)    0.03 (  73->  88)    0.02 (  65->  95)
 337   9.738     127.3   0.013692   0.011999   1.235586   1.347109     0.03 (  72->  87)    0.02 (  84-> 130)    0.02 (  83-> 104)
 338   9.748     127.2   0.056035   0.052766  42.234921  39.733703     0.03 (  70->  91)    0.02 (  83-> 127)    0.02 (  82-> 127)
 339   9.766     127.0   0.000824   0.000831   8.806807   9.184168     0.03 (  71-> 104)    0.02 (  66->  88)    0.02 (  75->  96)
 340   9.778     126.8   0.020418   0.019507  23.264916  21.059822     0.04 (  72->  87)    0.03 (  74-> 113)    0.02 (  80->  93)
 341   9.782     126.8   0.011724   0.011976   2.280911   2.313008     0.08 (  84-> 111)    0.02 (  69->  97)    0.02 (  79->  94)
 342   9.787     126.7   0.002351   0.002710  -6.546311  -7.248051     0.03 (  70-> 102)    0.03 (  58->  85)    0.02 (  70->  91)
 343   9.798     126.5   0.002620   0.002241  13.496024  12.661203     0.09 (  79->  93)    0.08 (  80->  93)    0.03 (  72->  87)
 344   9.802     126.5   0.002497   0.002375   4.605144   4.553238     0.12 (  84-> 111)    0.03 (  84-> 112)    0.03 (  84-> 114)
 345   9.813     126.3   0.011326   0.009933   9.342089   8.273489     0.10 (  84-> 111)    0.05 (  71-> 104)    0.03 (  53->  87)
 346   9.814     126.3   0.023373   0.019628  -28.463348  -27.603985     0.03 (  80->  93)    0.03 (  57->  85)    0.03 (  70->  91)
 347   9.820     126.3   0.001774   0.001937  -4.499557  -6.003794     0.05 (  53->  87)    0.05 (  80->  97)    0.03 (  81-> 127)
 348   9.822     126.2   0.014094   0.014229  24.189134  23.123241     0.09 (  65->  92)    0.07 (  68->  92)    0.05 (  55->  93)
 349   9.826     126.2   0.013538   0.011993  -3.684081  -3.214400     0.04 (  72->  87)    0.04 (  84-> 111)    0.03 (  53->  87)
 350   9.847     125.9   0.018555   0.016513  -13.296474  -14.343745     0.09 (  58->  85)    0.05 (  70-> 107)    0.03 (  65->  92)
 351   9.851     125.9   0.003684   0.002144  12.025015  10.558869     0.05 (  81-> 127)    0.05 (  82-> 100)    0.03 (  83-> 100)
 352   9.859     125.8   0.009754   0.008923  -2.253372  -2.408178     0.07 (  81-> 102)    0.05 (  81-> 104)    0.03 (  81-> 127)
 353   9.869     125.6   0.005563   0.004605   4.353162   4.790442     0.04 (  73->  87)    0.02 (  72->  87)    0.02 (  70-> 107)
 354   9.872     125.6   0.015147   0.012170  -32.910108  -29.563237     0.03 (  59->  85)    0.02 (  72->  99)    0.02 (  81-> 104)
 355   9.873     125.6   0.007935   0.006269  17.218154  15.998230     0.07 (  59->  85)    0.05 (  51->  86)    0.04 (  59->  92)
 356   9.885     125.4   0.007392   0.005622  -11.005492  -9.275079     0.03 (  72->  99)    0.03 (  81-> 104)    0.03 (  82-> 126)
 357   9.887     125.4   0.005186   0.004740  -31.611831  -29.973618     0.11 (  81-> 102)    0.11 (  59->  85)    0.09 (  81-> 104)
 358   9.892     125.3   0.035984   0.028119  28.266339  27.138778     0.06 (  81-> 102)    0.06 (  59->  85)    0.05 (  54->  87)
 359   9.899     125.3   0.005075   0.004009  16.304487  14.535245     0.03 (  59->  85)    0.03 (  59->  92)    0.02 (  70-> 107)
 360   9.912     125.1   0.012805   0.009978  -0.053080  -1.583519     0.08 (  54->  87)    0.04 (  75->  89)    0.03 (  74->  87)
 361   9.916     125.0   0.008306   0.006393   3.614246   2.843684     0.03 (  50->  87)    0.03 (  74->  87)    0.02 (  79-> 111)
 362   9.925     124.9   0.003328   0.002524   4.077007   4.728478     0.04 (  81-> 127)    0.02 (  82-> 108)    0.02 (  76-> 100)
 363   9.926     124.9   0.014563   0.012024  -14.639669  -13.536447     0.09 (  75->  89)    0.04 (  54->  87)    0.03 (  76->  89)
 364   9.935     124.8   0.010647   0.007705  -19.859708  -19.302663     0.04 (  84-> 136)    0.04 (  79->  92)    0.03 (  76-> 100)
 365   9.935     124.8   0.028141   0.022607   7.339687   7.088378     0.09 (  79->  92)    0.05 (  75->  89)    0.04 (  54->  87)
 366   9.938     124.8   0.003882   0.003389  11.174553  10.645363     0.13 (  75->  93)    0.10 (  55->  93)    0.08 (  55->  92)
 367   9.944     124.7   0.007546   0.006358  -19.726132  -17.129832     0.03 (  84-> 114)    0.03 (  75->  89)    0.02 (  78->  94)
 368   9.958     124.5   0.018498   0.015107  47.007350  40.443623     0.04 (  75->  89)    0.04 (  76-> 100)    0.04 (  54->  87)
 369   9.963     124.4   0.001233   0.001283   5.969402   6.591336     0.05 (  79->  92)    0.04 (  76-> 100)    0.04 (  75->  89)
 370   9.967     124.4   0.029890   0.026376  -45.707253  -44.477859     0.06 (  75->  89)    0.04 (  79->  92)    0.04 (  54->  87)
 371   9.968     124.4   0.008753   0.007134  -2.722707  -2.920963     0.26 (  83-> 101)    0.16 (  82-> 101)    0.05 (  80-> 101)
 372   9.976     124.3   0.001744   0.001234   9.076942   7.425173     0.09 (  68->  86)    0.03 (  60->  86)    0.03 (  62->  85)
 373   9.984     124.2   0.026775   0.022705   4.613538   7.689065     0.05 (  83-> 101)    0.03 (  72-> 100)    0.02 (  82-> 101)
 374   9.993     124.1   0.021183   0.016653  10.067109   8.617180     0.08 (  75->  97)    0.06 (  79->  92)    0.05 (  54->  87)
 375   9.999     124.0   0.010999   0.008755  18.037061  15.925834     0.05 (  81-> 127)    0.02 (  62->  86)    0.02 (  78->  91)

sTD-DFT done

Total run time:       70.219 sec

           *** ORCA-CIS/TD-DFT FINISHED WITHOUT ERROR ***


-------------------------------------------------------------------------------
                          DFT DISPERSION CORRECTION                            
                                                                               
                              DFTD3 V3.1  Rev 1                                
                              USING zero damping                               
-------------------------------------------------------------------------------
The omegaB97X-D3 functional is recognized. Fit by Chai et al.
Active option DFTDOPT                   ...         3   

molecular C6(AA) [au] = 59380.510441 


            DFT-D V3
 parameters
 s6 scaling factor         :     1.0000 
 rs6 scaling factor        :     1.2810 
 s8 scaling factor         :     1.0000 
 rs8 scaling factor        :     1.0940 
 Damping factor alpha6     :    14.0000 
 Damping factor alpha8     :    16.0000 
 ad hoc parameters k1-k3   :    16.0000     1.3333    -4.0000 

 Edisp/kcal,au: -13.745024822693  -0.021904088981 
 E6   /kcal   :  -6.158553639 
 E8   /kcal   :  -7.586471183 
 % E8         :  55.194306895 

-------------------------   ----------------
Dispersion correction           -0.021904089
-------------------------   ----------------


-------------------------   --------------------
FINAL SINGLE POINT ENERGY     -4342.423410444029
-------------------------   --------------------


                            ***************************************
                            *     ORCA property calculations      *
                            ***************************************

                                    ---------------------
                                    Active property flags
                                    ---------------------
   (+) Dipole Moment
   (+) Quadrupole Moment


------------------------------------------------------------------------------
                       ORCA ELECTRIC PROPERTIES CALCULATION
------------------------------------------------------------------------------

Dipole Moment Calculation                       ... on
Quadrupole Moment Calculation                   ... on
Polarizability Calculation                      ... off
GBWName                                         ... total_job2.gbw
Electron density file                           ... total_job2.scfp.tmp

-------------
DIPOLE MOMENT
-------------
                                X             Y             Z
Electronic contribution:     40.81975      -7.15790       5.64009
Nuclear contribution   :    -41.76298       7.44051      -6.05278
                        -----------------------------------------
Total Dipole Moment    :     -0.94323       0.28262      -0.41269
                        -----------------------------------------
Magnitude (a.u.)       :      1.06765
Magnitude (Debye)      :      2.71374


------------------------
QUADRUPOLE MOMENT (A.U.)
------------------------

                XX           YY           ZZ           XY           XZ           YZ
  NUC     49282.38306   3127.69697   1263.47749   2078.48775   2285.12427  -1157.63462
  EL     -49397.73203  -3315.86604  -1460.70965  -2078.39993  -2269.74723   1155.83181
  TOT      -115.34897   -188.16907   -197.23216      0.08782     15.37704     -1.80281

--------------------------------------------------------------------------
[[2909,1],1]: A high-performance Open MPI point-to-point messaging module
was unable to find any relevant network interfaces:

Module: OpenFabrics (openib)
  Host: cx1-103-9-2

Another transport will be used instead, although this may result in
lower performance.
--------------------------------------------------------------------------

Timings for individual modules:

Sum of individual times         ...      212.540 sec (=   3.542 min)
GTO integral calculation        ...        6.324 sec (=   0.105 min)   3.0 %
SCF iterations                  ...      131.561 sec (=   2.193 min)  61.9 %
CIS module                      ...       74.654 sec (=   1.244 min)  35.1 %



                             ****ORCA TERMINATED NORMALLY****
TOTAL RUN TIME: 0 days 0 hours 11 minutes 53 seconds 714 msec
