
                                 *****************
                                 * O   R   C   A *
                                 *****************

           --- An Ab Initio, DFT and Semiempirical electronic structure package ---

                  #######################################################
                  #                        -***-                        #
                  #  Department of molecular theory and spectroscopy    #
                  #              Directorship: Frank Neese              #
                  # Max Planck Institute for Chemical Energy Conversion #
                  #                  D-45470 Muelheim/Ruhr              #
                  #                       Germany                       #
                  #                                                     #
                  #                  All rights reserved                #
                  #                        -***-                        #
                  #######################################################


                         Program Version 4.0.0 -  RELEASE  -


 With contributions from (in alphabetic order):
   Daniel Aravena         : Magnetic Properties
   Michael Atanasov       : Ab Initio Ligand Field Theory
   Ute Becker             : Parallelization
   Martin Brehm           : Molecular dynamics
   Dmytro Bykov           : SCF Hessian
   Vijay G. Chilkuri      : MRCI spin determinant printing
   Dipayan Datta          : RHF DLPNO-CCSD density
   Achintya Kumar Dutta   : EOM-CC, STEOM-CC
   Dmitry Ganyushin       : Spin-Orbit,Spin-Spin,Magnetic field MRCI
   Yang Guo               : DLPNO-NEVPT2, CIM, IAO-localization
   Andreas Hansen         : Spin unrestricted coupled pair/coupled cluster methods
   Lee Huntington         : MR-EOM, pCC
   Robert Izsak           : Overlap fitted RIJCOSX, COSX-SCS-MP3, EOM
   Christian Kollmar      : KDIIS, OOCD, Brueckner-CCSD(T), CCSD density
   Simone Kossmann        : Meta GGA functionals, TD-DFT gradient, OOMP2, MP2 Hessian
   Martin Krupicka        : AUTO-CI
   Dagmar Lenk            : GEPOL surface
   Dimitrios Liakos       : Extrapolation schemes; parallel MDCI
   Dimitrios Manganas     : ROCIS; embedding schemes
   Dimitrios Pantazis     : SARC Basis sets
   Taras Petrenko         : DFT Hessian,TD-DFT gradient, ASA, ECA, R-Raman, ABS, FL, XAS/XES, NRVS
   Peter Pinski           : DLPNO-MP2
   Christoph Reimann      : Effective Core Potentials
   Marius Retegan         : Local ZFS, SOC
   Christoph Riplinger    : Optimizer, TS searches, QM/MM, DLPNO-CCSD(T), (RO)-DLPNO pert. Triples
   Tobias Risthaus        : Range-separated hybrids, TD-DFT gradient, RPA, STAB
   Michael Roemelt        : Restricted open shell CIS
   Masaaki Saitow         : Open-shell DLPNO
   Barbara Sandhoefer     : DKH picture change effects
   Kantharuban Sivalingam : CASSCF convergence, NEVPT2, FIC-MRCI
   Georgi Stoychev        : AutoAux
   Boris Wezisla          : Elementary symmetry handling
   Frank Wennmohs         : Technical directorship


 We gratefully acknowledge several colleagues who have allowed us to
 interface, adapt or use parts of their codes:
   Stefan Grimme, W. Hujo, H. Kruse,             : VdW corrections, initial TS optimization,
                  C. Bannwarth                     DFT functionals, gCP, sTDA/sTD-DF
   Ed Valeev                                     : LibInt (2-el integral package), F12 methods
   Garnet Chan, S. Sharma, J. Yang, R. Olivares  : DMRG
   Ulf Ekstrom                                   : XCFun DFT Library
   Mihaly Kallay                                 : mrcc  (arbitrary order and MRCC methods)
   Jiri Pittner, Ondrej Demel                    : Mk-CCSD
   Frank Weinhold                                : gennbo (NPA and NBO analysis)
   Christopher J. Cramer and Donald G. Truhlar   : smd solvation model


 Your calculation uses the libint2 library for the computation of 2-el integrals
 For citations please refer to: http://libint.valeyev.net

 This ORCA versions uses:
   CBLAS   interface :  Fast vector & matrix operations
   LAPACKE interface :  Fast linear algebra routines
   SCALAPACK package :  Parallel linear algebra routines


Your calculation utilizes the atom-pairwise dispersion correction
with the zero-damping scheme (D30)
Cite in your paper:
S.Grimme, J.Antony, S.Ehrlich and H.Krieg, J.Chem.Phys., 132, (2010), 154104 
   

XCFun DFT library Copyright 2009-2010 Ulf Ekstrom and contributors.
See http://admol.org/xcfun for more information. This is free soft-
ware; see the source code for copying conditions. There is ABSOLUTELY
NO WARRANTY; not even for MERCHANTABILITY or FITNESS FOR A PARTICULAR
PURPOSE. For details see the documentation. Scientific users of this 
library should cite U. Ekstrom, L. Visscher, R. Bast, A. J. Thorvald-
sen and K. Ruud; J.Chem.Theor.Comp. 2010, DOI: 10.1021/ct100117s
XCFun Version 0.99 
Your calculation utilizes the basis: def2-TZVP
   F. Weigend and R. Ahlrichs, Phys. Chem. Chem. Phys. 7, 3297 (2005).

Your calculation utilizes the auxiliary basis: def2/J
   F. Weigend, Phys. Chem. Chem. Phys. 8, 1057 (2006).

================================================================================
                                        WARNINGS
                       Please study these warnings very carefully!
================================================================================

Warning: TCutStore was < 0. Adjusted to Thresh (uncritical)
INFO   : Checking CIS options ...

WARNING: CIS/ROCIS methods need fully converged wavefunctions
  ===> : Setting SCFConvForced true
         You can overwrite this default with %scf ConvForced false 


INFO   : the flag for use of LIBINT has been found!

Your calculation utilizes the atom-pairwise dispersion correction
with the zero-damping scheme (D30)
Cite in your paper:
S.Grimme, J.Antony, S.Ehrlich and H.Krieg, J.Chem.Phys., 132, (2010), 154104 
   

XCFun DFT library Copyright 2009-2010 Ulf Ekstrom and contributors.
See http://admol.org/xcfun for more information. This is free soft-
ware; see the source code for copying conditions. There is ABSOLUTELY
NO WARRANTY; not even for MERCHANTABILITY or FITNESS FOR A PARTICULAR
PURPOSE. For details see the documentation. Scientific users of this 
library should cite U. Ekstrom, L. Visscher, R. Bast, A. J. Thorvald-
sen and K. Ruud; J.Chem.Theor.Comp. 2010, DOI: 10.1021/ct100117s
XCFun Version 0.99 
Your calculation utilizes the basis: def2-TZVP
   F. Weigend and R. Ahlrichs, Phys. Chem. Chem. Phys. 7, 3297 (2005).

Your calculation utilizes the auxiliary basis: def2/J
   F. Weigend, Phys. Chem. Chem. Phys. 8, 1057 (2006).

================================================================================
                                        WARNINGS
                       Please study these warnings very carefully!
================================================================================

INFO   : Checking CIS options ...

INFO   : the flag for use of LIBINT has been found!

================================================================================
                                       INPUT FILE
================================================================================
NAME = total.inp
|  1> # 
|  2> !wB97X-D3 def2-TZVP def2/J RIJCOSX Grid5 FinalGrid6 TightSCF
|  3> %pal 
|  4>  nprocs 24
|  5> end
|  6> %tddft
|  7>   Mode sTDDFT
|  8>   nroots 2
|  9>   Ethresh 10.0
| 10>   maxcore 5000
| 11>   triplets true
| 12> end
| 13> * xyz 0 1 
| 14> C 10.33293565 2.21214881 2.62415895
| 15> C 9.07821796 2.00467889 2.10620290
| 16> C 8.85362767 0.96042585 1.15211292
| 17> C 9.96221982 0.12715362 0.75420560
| 18> C 11.25467685 0.37908772 1.31908361
| 19> C 11.42865969 1.39474781 2.22637702
| 20> N 7.61096030 0.77166556 0.64243918
| 21> C 7.44486972 -0.22272738 -0.26040460
| 22> C 8.55270172 -1.07755159 -0.63259350
| 23> N 9.79638105 -0.89006901 -0.12569856
| 24> C 8.33042124 -2.15153994 -1.55273775
| 25> C 7.07550730 -2.36674522 -2.06786452
| 26> C 5.98802065 -1.52791702 -1.71420936
| 27> C 6.13853885 -0.46147820 -0.84144151
| 28> H 5.01694552 -1.71926311 -2.16364918
| 29> H 6.90372510 -3.18247028 -2.76557471
| 30> H 9.16535806 -2.78811069 -1.83276754
| 31> H 12.41044187 1.58398427 2.65312866
| 32> H 8.24236138 2.63054703 2.40920182
| 33> H 10.50163345 3.00716422 3.34611014
| 34> S 0.22348553 2.12818170 0.22673020
| 35> C 1.25094895 0.76037565 -0.18871955
| 36> C 0.48897725 -0.36729647 -0.41546866
| 37> C -0.92385252 -0.15162223 -0.26041380
| 38> C -1.21838938 1.15867198 0.08957993
| 39> C 2.68963519 0.89712860 -0.25865531
| 40> C 3.62489273 -0.07117215 -0.56428066
| 41> C 4.98125901 0.40021591 -0.52726968
| 42> C 5.05588474 1.74305959 -0.20046425
| 43> S 3.47845485 2.43562730 0.06567159
| 44> H 3.35391208 -1.09890835 -0.78185926
| 45> H 0.91912096 -1.32668984 -0.68614497
| 46> H 5.95290845 2.34433391 -0.13500659
| 47> H -2.20642808 1.56787430 0.26010579
| 48> C -8.25198756 -2.37436940 -0.71268467
| 49> C -9.61534003 -2.54982012 -0.48230829
| 50> C -10.24260665 -1.87060352 0.56366801
| 51> C -9.49709278 -1.02210094 1.38497991
| 52> C -8.13559162 -0.83803652 1.15260164
| 53> C -7.49727028 -1.50298443 0.09037102
| 54> C -6.03581514 -1.34884120 -0.16222756
| 55> C -5.36106602 -0.05471512 -0.02882900
| 56> N -4.03382074 0.05092316 -0.08255023
| 57> C -3.32331196 -1.09786938 -0.34227212
| 58> C -4.00049619 -2.34919869 -0.59633871
| 59> N -5.37119372 -2.45757194 -0.47614398
| 60> C -1.92361460 -1.19021346 -0.44907489
| 61> S -1.48341336 -2.83106756 -0.87407810
| 62> C -3.12842735 -3.38959638 -0.90609966
| 63> C -6.11307548 1.22154606 0.12974690
| 64> C -5.59362407 2.22985980 0.95978834
| 65> C -6.26310467 3.44293311 1.10854799
| 66> C -7.45421052 3.67505549 0.41817579
| 67> C -7.96643217 2.69103663 -0.43013857
| 68> C -7.30353560 1.47410970 -0.57564241
| 69> H -7.70101627 0.72246083 -1.25300239
| 70> H -8.88443149 2.87384008 -0.98283993
| 71> H -7.97650956 4.62123266 0.53369509
| 72> H -5.85510286 4.21003777 1.76211948
| 73> H -4.66400502 2.04706086 1.49358302
| 74> H -7.56026244 -0.18843880 1.80762227
| 75> H -9.97781055 -0.50394475 2.21084086
| 76> H -11.30568877 -2.00802237 0.74379779
| 77> H -10.19006408 -3.21943418 -1.11743173
| 78> H -7.75967998 -2.90469277 -1.52386032
| 79> H 12.09228180 -0.24507290 1.01793837
| 80> H -3.38139388 -4.41731297 -1.13223825
| 81> *
| 82> $new_job
| 83> # 
| 84> !wB97X-D3 def2-TZVP def2/J RIJCOSX Grid5 FinalGrid6 TightSCF
| 85> %pal 
| 86>  nprocs 24
| 87> end
| 88> %elprop
| 89>    dipole     true
| 90>    quadrupole true
| 91> end
| 92> %tddft
| 93>   Mode sTDDFT
| 94>   nroots 2
| 95>   Ethresh 10.0
| 96>   maxcore 5000
| 97> end
| 98> * xyz 0 1 
| 99> C 10.33293565 2.21214881 2.62415895
|100> C 9.07821796 2.00467889 2.10620290
|101> C 8.85362767 0.96042585 1.15211292
|102> C 9.96221982 0.12715362 0.75420560
|103> C 11.25467685 0.37908772 1.31908361
|104> C 11.42865969 1.39474781 2.22637702
|105> N 7.61096030 0.77166556 0.64243918
|106> C 7.44486972 -0.22272738 -0.26040460
|107> C 8.55270172 -1.07755159 -0.63259350
|108> N 9.79638105 -0.89006901 -0.12569856
|109> C 8.33042124 -2.15153994 -1.55273775
|110> C 7.07550730 -2.36674522 -2.06786452
|111> C 5.98802065 -1.52791702 -1.71420936
|112> C 6.13853885 -0.46147820 -0.84144151
|113> H 5.01694552 -1.71926311 -2.16364918
|114> H 6.90372510 -3.18247028 -2.76557471
|115> H 9.16535806 -2.78811069 -1.83276754
|116> H 12.41044187 1.58398427 2.65312866
|117> H 8.24236138 2.63054703 2.40920182
|118> H 10.50163345 3.00716422 3.34611014
|119> S 0.22348553 2.12818170 0.22673020
|120> C 1.25094895 0.76037565 -0.18871955
|121> C 0.48897725 -0.36729647 -0.41546866
|122> C -0.92385252 -0.15162223 -0.26041380
|123> C -1.21838938 1.15867198 0.08957993
|124> C 2.68963519 0.89712860 -0.25865531
|125> C 3.62489273 -0.07117215 -0.56428066
|126> C 4.98125901 0.40021591 -0.52726968
|127> C 5.05588474 1.74305959 -0.20046425
|128> S 3.47845485 2.43562730 0.06567159
|129> H 3.35391208 -1.09890835 -0.78185926
|130> H 0.91912096 -1.32668984 -0.68614497
|131> H 5.95290845 2.34433391 -0.13500659
|132> H -2.20642808 1.56787430 0.26010579
|133> C -8.25198756 -2.37436940 -0.71268467
|134> C -9.61534003 -2.54982012 -0.48230829
|135> C -10.24260665 -1.87060352 0.56366801
|136> C -9.49709278 -1.02210094 1.38497991
|137> C -8.13559162 -0.83803652 1.15260164
|138> C -7.49727028 -1.50298443 0.09037102
|139> C -6.03581514 -1.34884120 -0.16222756
|140> C -5.36106602 -0.05471512 -0.02882900
|141> N -4.03382074 0.05092316 -0.08255023
|142> C -3.32331196 -1.09786938 -0.34227212
|143> C -4.00049619 -2.34919869 -0.59633871
|144> N -5.37119372 -2.45757194 -0.47614398
|145> C -1.92361460 -1.19021346 -0.44907489
|146> S -1.48341336 -2.83106756 -0.87407810
|147> C -3.12842735 -3.38959638 -0.90609966
|148> C -6.11307548 1.22154606 0.12974690
|149> C -5.59362407 2.22985980 0.95978834
|150> C -6.26310467 3.44293311 1.10854799
|151> C -7.45421052 3.67505549 0.41817579
|152> C -7.96643217 2.69103663 -0.43013857
|153> C -7.30353560 1.47410970 -0.57564241
|154> H -7.70101627 0.72246083 -1.25300239
|155> H -8.88443149 2.87384008 -0.98283993
|156> H -7.97650956 4.62123266 0.53369509
|157> H -5.85510286 4.21003777 1.76211948
|158> H -4.66400502 2.04706086 1.49358302
|159> H -7.56026244 -0.18843880 1.80762227
|160> H -9.97781055 -0.50394475 2.21084086
|161> H -11.30568877 -2.00802237 0.74379779
|162> H -10.19006408 -3.21943418 -1.11743173
|163> H -7.75967998 -2.90469277 -1.52386032
|164> H 12.09228180 -0.24507290 1.01793837
|165> H -3.38139388 -4.41731297 -1.13223825
|166> *
|167> 
|168>                          ****END OF INPUT****
================================================================================


                 $$$$$$$$$$$$$$$$$$$$$$$$$$$$$$$$$$$$$$$$$$$$$$ 
                 $ THERE ARE  2 JOBS TO BE PROCESSED THIS RUN $
                 $$$$$$$$$$$$$$$$$$$$$$$$$$$$$$$$$$$$$$$$$$$$$$ 




                 $$$$$$$$$$$$$$$$  JOB NUMBER  1 $$$$$$$$$$$$$$


                       ****************************
                       * Single Point Calculation *
                       ****************************

---------------------------------
CARTESIAN COORDINATES (ANGSTROEM)
---------------------------------
  C     10.332936    2.212149    2.624159
  C      9.078218    2.004679    2.106203
  C      8.853628    0.960426    1.152113
  C      9.962220    0.127154    0.754206
  C     11.254677    0.379088    1.319084
  C     11.428660    1.394748    2.226377
  N      7.610960    0.771666    0.642439
  C      7.444870   -0.222727   -0.260405
  C      8.552702   -1.077552   -0.632594
  N      9.796381   -0.890069   -0.125699
  C      8.330421   -2.151540   -1.552738
  C      7.075507   -2.366745   -2.067865
  C      5.988021   -1.527917   -1.714209
  C      6.138539   -0.461478   -0.841442
  H      5.016946   -1.719263   -2.163649
  H      6.903725   -3.182470   -2.765575
  H      9.165358   -2.788111   -1.832768
  H     12.410442    1.583984    2.653129
  H      8.242361    2.630547    2.409202
  H     10.501633    3.007164    3.346110
  S      0.223486    2.128182    0.226730
  C      1.250949    0.760376   -0.188720
  C      0.488977   -0.367296   -0.415469
  C     -0.923853   -0.151622   -0.260414
  C     -1.218389    1.158672    0.089580
  C      2.689635    0.897129   -0.258655
  C      3.624893   -0.071172   -0.564281
  C      4.981259    0.400216   -0.527270
  C      5.055885    1.743060   -0.200464
  S      3.478455    2.435627    0.065672
  H      3.353912   -1.098908   -0.781859
  H      0.919121   -1.326690   -0.686145
  H      5.952908    2.344334   -0.135007
  H     -2.206428    1.567874    0.260106
  C     -8.251988   -2.374369   -0.712685
  C     -9.615340   -2.549820   -0.482308
  C    -10.242607   -1.870604    0.563668
  C     -9.497093   -1.022101    1.384980
  C     -8.135592   -0.838037    1.152602
  C     -7.497270   -1.502984    0.090371
  C     -6.035815   -1.348841   -0.162228
  C     -5.361066   -0.054715   -0.028829
  N     -4.033821    0.050923   -0.082550
  C     -3.323312   -1.097869   -0.342272
  C     -4.000496   -2.349199   -0.596339
  N     -5.371194   -2.457572   -0.476144
  C     -1.923615   -1.190213   -0.449075
  S     -1.483413   -2.831068   -0.874078
  C     -3.128427   -3.389596   -0.906100
  C     -6.113075    1.221546    0.129747
  C     -5.593624    2.229860    0.959788
  C     -6.263105    3.442933    1.108548
  C     -7.454211    3.675055    0.418176
  C     -7.966432    2.691037   -0.430139
  C     -7.303536    1.474110   -0.575642
  H     -7.701016    0.722461   -1.253002
  H     -8.884431    2.873840   -0.982840
  H     -7.976510    4.621233    0.533695
  H     -5.855103    4.210038    1.762119
  H     -4.664005    2.047061    1.493583
  H     -7.560262   -0.188439    1.807622
  H     -9.977811   -0.503945    2.210841
  H    -11.305689   -2.008022    0.743798
  H    -10.190064   -3.219434   -1.117432
  H     -7.759680   -2.904693   -1.523860
  H     12.092282   -0.245073    1.017938
  H     -3.381394   -4.417313   -1.132238

----------------------------
CARTESIAN COORDINATES (A.U.)
----------------------------
  NO LB      ZA    FRAG     MASS         X           Y           Z
   0 C     6.0000    0    12.011   19.526419    4.180355    4.958942
   1 C     6.0000    0    12.011   17.155346    3.788294    3.980147
   2 C     6.0000    0    12.011   16.730932    1.814942    2.177178
   3 C     6.0000    0    12.011   18.825867    0.240286    1.425242
   4 C     6.0000    0    12.011   21.268257    0.716372    2.492707
   5 C     6.0000    0    12.011   21.597037    2.635691    4.207243
   6 N     7.0000    0    14.007   14.382631    1.458237    1.214034
   7 C     6.0000    0    12.011   14.068765   -0.420894   -0.492093
   8 C     6.0000    0    12.011   16.162264   -2.036277   -1.195428
   9 N     7.0000    0    14.007   18.512477   -1.681987   -0.237536
  10 C     6.0000    0    12.011   15.742215   -4.065821   -2.934249
  11 C     6.0000    0    12.011   13.370771   -4.472500   -3.907698
  12 C     6.0000    0    12.011   11.315719   -2.887345   -3.239386
  13 C     6.0000    0    12.011   11.600157   -0.872067   -1.590094
  14 H     1.0000    0     1.008    9.480653   -3.248936   -4.088704
  15 H     1.0000    0     1.008   13.046150   -6.013997   -5.226179
  16 H     1.0000    0     1.008   17.320017   -5.268766   -3.463429
  17 H     1.0000    0     1.008   23.452336    2.993296    5.013687
  18 H     1.0000    0     1.008   15.575806    4.971013    4.552732
  19 H     1.0000    0     1.008   19.845211    5.682717    6.323232
  20 S    16.0000    0    32.060    0.422326    4.021681    0.428458
  21 C     6.0000    0    12.011    2.363951    1.436902   -0.356628
  22 C     6.0000    0    12.011    0.924033   -0.694090   -0.785122
  23 C     6.0000    0    12.011   -1.745828   -0.286524   -0.492111
  24 C     6.0000    0    12.011   -2.302422    2.189573    0.169282
  25 C     6.0000    0    12.011    5.082674    1.695327   -0.488788
  26 C     6.0000    0    12.011    6.850055   -0.134496   -1.066336
  27 C     6.0000    0    12.011    9.413215    0.756298   -0.996395
  28 C     6.0000    0    12.011    9.554238    3.293905   -0.378823
  29 S    16.0000    0    32.060    6.573327    4.602669    0.124101
  30 H     1.0000    0     1.008    6.337975   -2.076636   -1.477500
  31 H     1.0000    0     1.008    1.736887   -2.507080   -1.296626
  32 H     1.0000    0     1.008   11.249367    4.430149   -0.255125
  33 H     1.0000    0     1.008   -4.169545    2.962853    0.491529
  34 C     6.0000    0    12.011  -15.593997   -4.486908   -1.346779
  35 C     6.0000    0    12.011  -18.170359   -4.818462   -0.911431
  36 C     6.0000    0    12.011  -19.355721   -3.534928    1.065178
  37 C     6.0000    0    12.011  -17.946904   -1.931491    2.617233
  38 C     6.0000    0    12.011  -15.374040   -1.583660    2.178101
  39 C     6.0000    0    12.011  -14.167788   -2.840229    0.170776
  40 C     6.0000    0    12.011  -11.406038   -2.548940   -0.306566
  41 C     6.0000    0    12.011  -10.130947   -0.103397   -0.054479
  42 N     7.0000    0    14.007   -7.622816    0.096231   -0.155997
  43 C     6.0000    0    12.011   -6.280149   -2.074672   -0.646801
  44 C     6.0000    0    12.011   -7.559842   -4.439342   -1.126917
  45 N     7.0000    0    14.007  -10.150085   -4.644138   -0.899782
  46 C     6.0000    0    12.011   -3.635105   -2.249177   -0.848629
  47 S    16.0000    0    32.060   -2.803245   -5.349942   -1.651768
  48 C     6.0000    0    12.011   -5.911871   -6.405409   -1.712280
  49 C     6.0000    0    12.011  -11.552038    2.308388    0.245186
  50 C     6.0000    0    12.011  -10.570418    4.213824    1.813737
  51 C     6.0000    0    12.011  -11.835553    6.506201    2.094852
  52 C     6.0000    0    12.011  -14.086416    6.944848    0.790238
  53 C     6.0000    0    12.011  -15.054375    5.085322   -0.812844
  54 C     6.0000    0    12.011  -13.801682    2.785664   -1.087807
  55 H     1.0000    0     1.008  -14.552812    1.365253   -2.367831
  56 H     1.0000    0     1.008  -16.789142    5.430771   -1.857298
  57 H     1.0000    0     1.008  -15.073419    8.732864    1.008538
  58 H     1.0000    0     1.008  -11.064541    7.955818    3.329923
  59 H     1.0000    0     1.008   -8.813692    3.868384    2.822463
  60 H     1.0000    0     1.008  -14.286826   -0.356098    3.415911
  61 H     1.0000    0     1.008  -18.855329   -0.952318    4.177884
  62 H     1.0000    0     1.008  -21.364656   -3.794612    1.405574
  63 H     1.0000    0     1.008  -19.256430   -6.083849   -2.111640
  64 H     1.0000    0     1.008  -14.663670   -5.489074   -2.879679
  65 H     1.0000    0     1.008   22.851101   -0.463121    1.923625
  66 H     1.0000    0     1.008   -6.389908   -8.347512   -2.139620

--------------------------------
INTERNAL COORDINATES (ANGSTROEM)
--------------------------------
 C      0   0   0     0.000000000000     0.00000000     0.00000000
 C      1   0   0     1.373185609827     0.00000000     0.00000000
 C      2   1   0     1.432198624440   120.31294284     0.00000000
 C      3   2   1     1.442792223309   118.96873840     0.47060709
 C      4   3   2     1.432830461472   118.86931349   359.49919303
 C      5   4   3     1.372959132262   120.32493879     0.20607606
 N      3   2   1     1.356325905079   119.70124812   180.39780932
 C      7   3   2     1.353340419470   117.73535141   179.72559772
 C      8   7   3     1.447943627186   120.75508065     1.86465920
 N      4   3   2     1.355166302490   121.23555335   178.72905433
 C      9   8   7     1.431616229488   119.29520158   177.66699249
 C     11   9   8     1.373491135216   120.03047734   359.68429853
 C     12  11   9     1.418214347424   120.95744132     0.73408007
 C     13  12  11     1.386243559166   121.92150994     0.03809490
 H     13  12  11     1.087012597013   118.54153970   178.54577835
 H     12  11   9     1.087067618402   120.17698235   180.09185652
 H     11   9   8     1.086627119317   119.06577147   179.73942496
 H      6   5   4     1.087117127545   120.17384060   180.02426258
 H      2   1   3     1.087278941449   120.68733696   180.24916446
 H      1   2   3     1.087070361386   120.18517571   179.82755196
 S     14  13  12     6.544859431505   108.00011100   184.84605266
 C     21  14  13     1.760446808236    29.14159813    26.89966849
 C     22  21  14     1.379732017716   110.57826924   179.93035525
 C     23  22  21     1.437583161562   113.72879751     0.00000000
 C     24  23  22     1.387846709726   112.17358236   359.91497262
 C     22  21  14     1.446862286821   121.21898082   359.90458375
 C     26  22  21     1.380478128454   128.17492861   179.82036062
 C     27  26  22     1.436421247849   113.81849127   180.78858560
 C     28  27  26     1.384051999591   112.04872090   359.46392986
 S     29  28  27     1.743204915130   111.88376002     0.10929912
 H     27  26  22     1.084902141505   122.65952410   359.03859671
 H     23  22  21     1.085690984787   122.98406283   179.98917424
 H     29  28  27     1.081881254781   126.74193694   181.94921011
 H     25  24  23     1.082934014758   126.16332818   179.82400782
 C     34  25  24     7.282609154381   122.12800834   356.46144789
 C     35  34  25     1.393766906289   149.10229107   162.43028259
 C     36  35  34     1.396017558071   120.14029680   341.57580908
 C     37  36  35     1.396531702365   119.76146591   359.52184789
 C     38  37  36     1.393400437692   120.25116796     0.86822152
 C     35  34  25     1.404922908886    30.90207029   131.92034817
 C     40  35  34     1.491112773805   119.59039849   341.39650440
 C     41  40  35     1.465552408373   121.81053545   142.56358161
 N     42  41  40     1.332525965990   121.66255620   171.08112163
 C     43  42  41     1.375500812999   117.12288257     3.46937570
 C     44  43  42     1.445321194607   120.94764877     2.35907305
 N     41  40  35     1.330243964275   116.32754553   320.62261451
 C     44  43  42     1.406800256036   125.66851095   179.45392083
 S     47  44  43     1.751230149836   109.27037586   183.08951681
 C     45  44  43     1.392437884145   113.11369595   176.93648216
 C     42  41  40     1.489801041604   122.25915045   349.05504887
 C     50  42  41     1.405523090433   119.39799242   143.91325803
 C     51  50  42     1.393513746857   120.66309812   178.85924529
 C     52  51  50     1.396147456300   120.12007344   359.23057048
 C     53  52  51     1.396531914761   119.74474509   359.49234507
 C     54  53  52     1.393382353459   120.28636977     0.86030120
 H     55  54  53     1.087098638258   119.66859010   181.15297504
 H     54  53  52     1.087022836098   120.00743281   181.04952996
 H     53  52  51     1.086918687339   120.14142921   180.02021794
 H     52  51  50     1.087230761567   119.87320270   179.35591274
 H     51  50  42     1.087448293476   119.02767413   358.29380994
 H     39  38  37     1.087213359426   119.70368351   181.02176518
 H     38  37  36     1.087024250127   120.02321472   181.01686811
 H     37  36  35     1.086956425917   120.13984258   180.04680455
 H     36  35  34     1.087231579304   119.87105145   161.74543796
 H     35  34  25     1.087021418946    89.30149991   326.80130431
 H      5   4   3     1.087127861568   119.00157197   180.22865133
 H     49  45  44     1.082280978558   127.56087058   179.78348838

---------------------------
INTERNAL COORDINATES (A.U.)
---------------------------
 C      0   0   0     0.000000000000     0.00000000     0.00000000
 C      1   0   0     2.594944733614     0.00000000     0.00000000
 C      2   1   0     2.706463169570   120.31294284     0.00000000
 C      3   2   1     2.726482170205   118.96873840     0.47060709
 C      4   3   2     2.707657168521   118.86931349   359.49919303
 C      5   4   3     2.594516753042   120.32493879     0.20607606
 N      3   2   1     2.563084508943   119.70124812   180.39780932
 C      7   3   2     2.557442758764   117.73535141   179.72559772
 C      8   7   3     2.736216912739   120.75508065     1.86465920
 N      4   3   2     2.560893177625   121.23555335   178.72905433
 C      9   8   7     2.705362602609   119.29520158   177.66699249
 C     11   9   8     2.595522092927   120.03047734   359.68429853
 C     12  11   9     2.680036715828   120.95744132     0.73408007
 C     13  12  11     2.619620681735   121.92150994     0.03809490
 H     13  12  11     2.054156112477   118.54153970   178.54577835
 H     12  11   9     2.054260087834   120.17698235   180.09185652
 H     11   9   8     2.053427665201   119.06577147   179.73942496
 H      6   5   4     2.054353646555   120.17384060   180.02426258
 H      2   1   3     2.054659430518   120.68733696   180.24916446
 H      1   2   3     2.054265271323   120.18517571   179.82755196
 S     14  13  12    12.367991910555   108.00011100   184.84605266
 C     21  14  13     3.326762340903    29.14159813    26.89966849
 C     22  21  14     2.607315651687   110.57826924   179.93035525
 C     23  22  21     2.716638470089   113.72879751     0.00000000
 C     24  23  22     2.622650197246   112.17358236   359.91497262
 C     22  21  14     2.734173475591   121.21898082   359.90458375
 C     26  22  21     2.608725596646   128.17492861   179.82036062
 C     27  26  22     2.714442771380   113.81849127   180.78858560
 C     28  27  26     2.615479234333   112.04872090   359.46392986
 S     29  28  27     3.294179884901   111.88376002     0.10929912
 H     27  26  22     2.050167929550   122.65952410   359.03859671
 H     23  22  21     2.051658627315   122.98406283   179.98917424
 H     29  28  27     2.044459280959   126.74193694   181.94921011
 H     25  24  23     2.046448709000   126.16332818   179.82400782
 C     34  25  24    13.762136842168   122.12800834   356.46144789
 C     35  34  25     2.633837747408   149.10229107   162.43028259
 C     36  35  34     2.638090862900   120.14029680   341.57580908
 C     37  36  35     2.639062454809   119.76146591   359.52184789
 C     38  37  36     2.633145222123   120.25116796     0.86822152
 C     35  34  25     2.654919537067    30.90207029   131.92034817
 C     40  35  34     2.817794777284   119.59039849   341.39650440
 C     41  40  35     2.769492686733   121.81053545   142.56358161
 N     42  41  40     2.518109142059   121.66255620   171.08112163
 C     43  42  41     2.599319833555   117.12288257     3.46937570
 C     44  43  42     2.731261233359   120.94764877     2.35907305
 N     41  40  35     2.513796783781   116.32754553   320.62261451
 C     44  43  42     2.658467209037   125.66851095   179.45392083
 S     47  44  43     3.309345380656   109.27037586   183.08951681
 C     45  44  43     2.631326259530   113.11369595   176.93648216
 C     42  41  40     2.815315962663   122.25915045   349.05504887
 C     50  42  41     2.656053715821   119.39799242   143.91325803
 C     51  50  42     2.633359345414   120.66309812   178.85924529
 C     52  51  50     2.638336334978   120.12007344   359.23057048
 C     53  52  51     2.639062856179   119.74474509   359.49234507
 C     54  53  52     2.633111047877   120.28636977     0.86030120
 H     55  54  53     2.054318706866   119.66859010   181.15297504
 H     54  53  52     2.054175461543   120.00743281   181.04952996
 H     53  52  51     2.053978648912   120.14142921   180.02021794
 H     52  51  50     2.054568383736   119.87320270   179.35591274
 H     51  50  42     2.054979459470   119.02767413   358.29380994
 H     39  38  37     2.054535498456   119.70368351   181.02176518
 H     38  37  36     2.054178133671   120.02321472   181.01686811
 H     37  36  35     2.054049964489   120.13984258   180.04680455
 H     36  35  34     2.054569929035   119.87105145   161.74543796
 H     35  34  25     2.054172783514    89.30149991   326.80130431
 H      5   4   3     2.054373930919   119.00157197   180.22865133
 H     49  45  44     2.045214649427   127.56087058   179.78348838

---------------------
BASIS SET INFORMATION
---------------------
There are 4 groups of distinct atoms

 Group   1 Type C   : 11s6p2d1f contracted to 5s3p2d1f pattern {62111/411/11/1}
 Group   2 Type N   : 11s6p2d1f contracted to 5s3p2d1f pattern {62111/411/11/1}
 Group   3 Type H   : 5s1p contracted to 3s1p pattern {311/1}
 Group   4 Type S   : 14s9p3d1f contracted to 5s5p2d1f pattern {73211/51111/21/1}

Atom   0C    basis set group =>   1
Atom   1C    basis set group =>   1
Atom   2C    basis set group =>   1
Atom   3C    basis set group =>   1
Atom   4C    basis set group =>   1
Atom   5C    basis set group =>   1
Atom   6N    basis set group =>   2
Atom   7C    basis set group =>   1
Atom   8C    basis set group =>   1
Atom   9N    basis set group =>   2
Atom  10C    basis set group =>   1
Atom  11C    basis set group =>   1
Atom  12C    basis set group =>   1
Atom  13C    basis set group =>   1
Atom  14H    basis set group =>   3
Atom  15H    basis set group =>   3
Atom  16H    basis set group =>   3
Atom  17H    basis set group =>   3
Atom  18H    basis set group =>   3
Atom  19H    basis set group =>   3
Atom  20S    basis set group =>   4
Atom  21C    basis set group =>   1
Atom  22C    basis set group =>   1
Atom  23C    basis set group =>   1
Atom  24C    basis set group =>   1
Atom  25C    basis set group =>   1
Atom  26C    basis set group =>   1
Atom  27C    basis set group =>   1
Atom  28C    basis set group =>   1
Atom  29S    basis set group =>   4
Atom  30H    basis set group =>   3
Atom  31H    basis set group =>   3
Atom  32H    basis set group =>   3
Atom  33H    basis set group =>   3
Atom  34C    basis set group =>   1
Atom  35C    basis set group =>   1
Atom  36C    basis set group =>   1
Atom  37C    basis set group =>   1
Atom  38C    basis set group =>   1
Atom  39C    basis set group =>   1
Atom  40C    basis set group =>   1
Atom  41C    basis set group =>   1
Atom  42N    basis set group =>   2
Atom  43C    basis set group =>   1
Atom  44C    basis set group =>   1
Atom  45N    basis set group =>   2
Atom  46C    basis set group =>   1
Atom  47S    basis set group =>   4
Atom  48C    basis set group =>   1
Atom  49C    basis set group =>   1
Atom  50C    basis set group =>   1
Atom  51C    basis set group =>   1
Atom  52C    basis set group =>   1
Atom  53C    basis set group =>   1
Atom  54C    basis set group =>   1
Atom  55H    basis set group =>   3
Atom  56H    basis set group =>   3
Atom  57H    basis set group =>   3
Atom  58H    basis set group =>   3
Atom  59H    basis set group =>   3
Atom  60H    basis set group =>   3
Atom  61H    basis set group =>   3
Atom  62H    basis set group =>   3
Atom  63H    basis set group =>   3
Atom  64H    basis set group =>   3
Atom  65H    basis set group =>   3
Atom  66H    basis set group =>   3
-------------------------------
AUXILIARY BASIS SET INFORMATION
-------------------------------
There are 4 groups of distinct atoms

 Group   1 Type C   : 12s5p4d2f1g contracted to 6s4p3d1f1g pattern {711111/2111/211/2/1}
 Group   2 Type N   : 12s5p4d2f1g contracted to 6s4p3d1f1g pattern {711111/2111/211/2/1}
 Group   3 Type H   : 5s2p1d contracted to 3s1p1d pattern {311/2/1}
 Group   4 Type S   : 14s5p5d2f1g contracted to 8s4p3d1f1g pattern {71111111/2111/311/2/1}

Atom   0C    basis set group =>   1
Atom   1C    basis set group =>   1
Atom   2C    basis set group =>   1
Atom   3C    basis set group =>   1
Atom   4C    basis set group =>   1
Atom   5C    basis set group =>   1
Atom   6N    basis set group =>   2
Atom   7C    basis set group =>   1
Atom   8C    basis set group =>   1
Atom   9N    basis set group =>   2
Atom  10C    basis set group =>   1
Atom  11C    basis set group =>   1
Atom  12C    basis set group =>   1
Atom  13C    basis set group =>   1
Atom  14H    basis set group =>   3
Atom  15H    basis set group =>   3
Atom  16H    basis set group =>   3
Atom  17H    basis set group =>   3
Atom  18H    basis set group =>   3
Atom  19H    basis set group =>   3
Atom  20S    basis set group =>   4
Atom  21C    basis set group =>   1
Atom  22C    basis set group =>   1
Atom  23C    basis set group =>   1
Atom  24C    basis set group =>   1
Atom  25C    basis set group =>   1
Atom  26C    basis set group =>   1
Atom  27C    basis set group =>   1
Atom  28C    basis set group =>   1
Atom  29S    basis set group =>   4
Atom  30H    basis set group =>   3
Atom  31H    basis set group =>   3
Atom  32H    basis set group =>   3
Atom  33H    basis set group =>   3
Atom  34C    basis set group =>   1
Atom  35C    basis set group =>   1
Atom  36C    basis set group =>   1
Atom  37C    basis set group =>   1
Atom  38C    basis set group =>   1
Atom  39C    basis set group =>   1
Atom  40C    basis set group =>   1
Atom  41C    basis set group =>   1
Atom  42N    basis set group =>   2
Atom  43C    basis set group =>   1
Atom  44C    basis set group =>   1
Atom  45N    basis set group =>   2
Atom  46C    basis set group =>   1
Atom  47S    basis set group =>   4
Atom  48C    basis set group =>   1
Atom  49C    basis set group =>   1
Atom  50C    basis set group =>   1
Atom  51C    basis set group =>   1
Atom  52C    basis set group =>   1
Atom  53C    basis set group =>   1
Atom  54C    basis set group =>   1
Atom  55H    basis set group =>   3
Atom  56H    basis set group =>   3
Atom  57H    basis set group =>   3
Atom  58H    basis set group =>   3
Atom  59H    basis set group =>   3
Atom  60H    basis set group =>   3
Atom  61H    basis set group =>   3
Atom  62H    basis set group =>   3
Atom  63H    basis set group =>   3
Atom  64H    basis set group =>   3
Atom  65H    basis set group =>   3
Atom  66H    basis set group =>   3
-------------------------
ECP PARAMETER INFORMATION
-------------------------



--------------------------------------------------------------------------
[[23288,1],23]: A high-performance Open MPI point-to-point messaging module
was unable to find any relevant network interfaces:

Module: OpenFabrics (openib)
  Host: cx1-103-5-2

Another transport will be used instead, although this may result in
lower performance.
--------------------------------------------------------------------------


           ************************************************************
           *        Program running with 24 parallel MPI-processes    *
           *              working on a common directory               *
           ************************************************************
------------------------------------------------------------------------------
                           ORCA GTO INTEGRAL CALCULATION
                           -- RI-GTO INTEGRALS CHOSEN --
------------------------------------------------------------------------------

                         BASIS SET STATISTICS AND STARTUP INFO

Gaussian basis set:
 # of primitive gaussian shells          ... 1053
 # of primitive gaussian functions       ... 2297
 # of contracted shells                  ...  589
 # of contracted basis functions         ... 1545
 Highest angular momentum                ...    3
 Maximum contraction depth               ...    7
Auxiliary gaussian basis set:
 # of primitive gaussian shells          ... 1265
 # of primitive gaussian functions       ... 3523
 # of contracted shells                  ...  791
 # of contracted aux-basis functions     ... 2453
 Highest angular momentum                ...    4
 Maximum contraction depth               ...    7
Ratio of auxiliary to basis functions    ...  1.59
Integral package used                  ... LIBINT
 One Electron integrals                  
   ECP integrals                         ... done
 Ordering auxiliary basis shells         ... done
 Integral threshhold             Thresh  ...  2.500e-11
 Primitive cut-off               TCut    ...  2.500e-12
 Pre-screening matrix                    ... done
 Shell pair data                         ... 
 Ordering of the shell pairs             ... done (   0.018 sec) 72150 of 173755 pairs
 Determination of significant pairs      ... done (   0.000 sec)
 Creation of shell pair data             ... done (   0.014 sec)
 Storage of shell pair data              ... done (   0.176 sec)
 Shell pair data done in (   0.208 sec)
 Computing two index integrals           ... done
 Cholesky decomposition of the V-matrix  ... done


Timings:
 Total evaluation time                   ...   8.703 sec (  0.145 min)
 One electron matrix time                ...   2.604 sec (  0.043 min) = 29.9%
 Schwartz matrix evaluation time         ...   2.899 sec (  0.048 min) = 33.3%
 Two index repulsion integral time       ...   1.894 sec (  0.032 min) = 21.8%
 Cholesky decomposition of V             ...   1.063 sec (  0.018 min) = 12.2%
 Three index repulsion integral time     ...   0.000 sec (  0.000 min) =  0.0%

--------------------------------------------------------------------------
[[21807,1],8]: A high-performance Open MPI point-to-point messaging module
was unable to find any relevant network interfaces:

Module: OpenFabrics (openib)
  Host: cx1-103-5-2

Another transport will be used instead, although this may result in
lower performance.
--------------------------------------------------------------------------


           ************************************************************
           *        Program running with 24 parallel MPI-processes    *
           *              working on a common directory               *
           ************************************************************
-------------------------------------------------------------------------------
                                 ORCA SCF
-------------------------------------------------------------------------------

------------
SCF SETTINGS
------------
Hamiltonian:
 Density Functional     Method          .... DFT(GTOs)
 Exchange Functional    Exchange        .... WB97X-D3
 Correlation Functional Correlation     .... WB97X-D3
 Gradients option       PostSCFGGA      .... off
 Hybrid DFT is turned on
   Fraction HF Exchange ScalHFX         ....  0.195728
   Scaling of DF-GGA-X  ScalDFX         ....  0.000000
   Scaling of DF-GGA-C  ScalDFC         ....  1.000000
   Scaling of DF-LDA-C  ScalLDAC        ....  1.000000
   Perturbative correction              ....  0.000000
 Long-range corrected/Screened/Range-Separated Hybrid DFT is turned on
   Amount of maximum screened exact exchange              ....  0.804272
   Range separation parameter mu (erf(mu*r12)/r12)        ....  0.250000
 RI-approximation to the Coulomb term is turned on
   Number of auxiliary basis functions  .... 2453
   RIJ-COSX (HFX calculated with COS-X)).... on


General Settings:
 Integral files         IntName         .... total
 Hartree-Fock type      HFTyp           .... RHF
 Total Charge           Charge          ....    0
 Multiplicity           Mult            ....    1
 Number of Electrons    NEL             ....  326
 Basis Dimension        Dim             .... 1545
 Nuclear Repulsion      ENuc            ....   5008.7545048236 Eh

Convergence Acceleration:
 DIIS                   CNVDIIS         .... on
   Start iteration      DIISMaxIt       ....    12
   Startup error        DIISStart       ....  0.200000
   # of expansion vecs  DIISMaxEq       ....     5
   Bias factor          DIISBfac        ....   1.050
   Max. coefficient     DIISMaxC        ....  10.000
 Newton-Raphson         CNVNR           .... off
 SOSCF                  CNVSOSCF        .... on
   Start iteration      SOSCFMaxIt      ....   150
   Startup grad/error   SOSCFStart      ....  0.003300
 Level Shifting         CNVShift        .... on
   Level shift para.    LevelShift      ....    0.2500
   Turn off err/grad.   ShiftErr        ....    0.0010
 Zerner damping         CNVZerner       .... off
 Static damping         CNVDamp         .... on
   Fraction old density DampFac         ....    0.7000
   Max. Damping (<1)    DampMax         ....    0.9800
   Min. Damping (>=0)   DampMin         ....    0.0000
   Turn off err/grad.   DampErr         ....    0.1000
 Fernandez-Rico         CNVRico         .... off

SCF Procedure:
 Maximum # iterations   MaxIter         ....   125
 SCF integral mode      SCFMode         .... Direct
   Integral package                     .... LIBINT
 Reset frequeny         DirectResetFreq ....    20
 Integral Threshold     Thresh          ....  2.500e-11 Eh
 Primitive CutOff       TCut            ....  2.500e-12 Eh

Convergence Tolerance:
 Convergence Check Mode ConvCheckMode   .... Total+1el-Energy
 Convergence forced     ConvForced      .... 1
 Energy Change          TolE            ....  1.000e-08 Eh
 1-El. energy change                    ....  1.000e-05 Eh
 Orbital Gradient       TolG            ....  1.000e-05
 Orbital Rotation angle TolX            ....  1.000e-05
 DIIS Error             TolErr          ....  5.000e-07


Diagonalization of the overlap matrix:
Smallest eigenvalue                        ... 5.729e-06
Time for diagonalization                   ...    0.748 sec
Threshold for overlap eigenvalues          ... 1.000e-08
Number of eigenvalues below threshold      ... 0
Time for construction of square roots      ...    0.749 sec
Total time needed                          ...    1.516 sec

-------------------
DFT GRID GENERATION
-------------------

General Integration Accuracy     IntAcc      ...  5.010
Radial Grid Type                 RadialGrid  ... Gauss-Chebyshev
Angular Grid (max. acc.)         AngularGrid ... Lebedev-434
Angular grid pruning method      GridPruning ... 3 (G Style)
Weight generation scheme         WeightScheme... Becke
Basis function cutoff            BFCut       ...    1.0000e-11
Integration weight cutoff        WCut        ...    1.0000e-14
Grids for H and He will be reduced by one unit

# of grid points (after initial pruning)     ... 631328 (   0.0 sec)
# of grid points (after weights+screening)   ... 547606 (   2.2 sec)
nearest neighbour list constructed           ...    0.0 sec
Grid point re-assignment to atoms done       ...    0.2 sec
Grid point division into batches done        ...    4.9 sec
Reduced shell lists constructed in    5.7 sec

Total number of grid points                  ...   547606
Total number of batches                      ...     8590
Average number of points per batch           ...       63
Average number of grid points per atom       ...     8173
Average number of shells per batch           ...   128.84 (21.87%)
Average number of basis functions per batch  ...   336.69 (21.79%)
Average number of large shells per batch     ...    88.39 (68.61%)
Average number of large basis fcns per batch ...   232.87 (69.16%)
Maximum spatial batch extension              ...   8.89, 18.66, 20.83 au
Average spatial batch extension              ...   0.05,  0.06,  0.06 au

Time for grid setup =    9.461 sec

------------------------------
INITIAL GUESS: MODEL POTENTIAL
------------------------------
Loading Hartree-Fock densities                     ... done
Calculating cut-offs                               ... done
Setting up the integral package                    ... done
Initializing the effective Hamiltonian             ... done
Starting the Coulomb interaction                   ... done (   0.6 sec)
Reading the grid                                   ... done
Mapping shells                                     ... done
Starting the XC term evaluation                    ... done (   3.2 sec)
  promolecular density results
     # of electrons  =    325.989144111
     EX              =   -301.659299123
     EC              =    -11.253060238
     EX+EC           =   -312.912359361
Transforming the Hamiltonian                       ... done (   0.4 sec)
Diagonalizing the Hamiltonian                      ... done (   0.7 sec)
Back transforming the eigenvectors                 ... done (   0.2 sec)
Now organizing SCF variables                       ... done
                      ------------------
                      INITIAL GUESS DONE (  14.9 sec)
                      ------------------
--------------------
COSX GRID GENERATION
--------------------

General Integration Accuracy     IntAcc      ...  3.340
Radial Grid Type                 RadialGrid  ... Gauss-Chebyshev
Angular Grid (max. acc.)         AngularGrid ... Lebedev-50
Angular grid pruning method      GridPruning ... 3 (G Style)
Weight generation scheme         WeightScheme... Becke
Basis function cutoff            BFCut       ...    1.0000e-11
Integration weight cutoff        WCut        ...    1.0000e-14
Grids for H and He will be reduced by one unit

# of grid points (after initial pruning)     ...  33462 (   0.0 sec)
# of grid points (after weights+screening)   ...  30267 (   0.2 sec)
nearest neighbour list constructed           ...    0.0 sec
Grid point re-assignment to atoms done       ...    0.0 sec
Grid point division into batches done        ...    0.0 sec
Reduced shell lists constructed in    0.1 sec

Total number of grid points                  ...    30267
Total number of batches                      ...      508
Average number of points per batch           ...       59
Average number of grid points per atom       ...      452
Average number of shells per batch           ...   140.65 (23.88%)
Average number of basis functions per batch  ...   370.57 (23.98%)
Average number of large shells per batch     ...   101.13 (71.90%)
Average number of large basis fcns per batch ...   271.13 (73.17%)
Maximum spatial batch extension              ...   5.55, 12.58, 16.57 au
Average spatial batch extension              ...   0.11,  0.16,  0.17 au

Overlap Fitting                  UseSFitting ... on
Constructing numerical overlap ... done (      0.2 sec)
Inverting numerical overlap    ... done (      0.3 sec)
Obtaining analytic overlap     ... done (      0.0 sec)
Final contraction and storage  ... done (      1.1 sec)


General Integration Accuracy     IntAcc      ...  3.670
Radial Grid Type                 RadialGrid  ... Gauss-Chebyshev
Angular Grid (max. acc.)         AngularGrid ... Lebedev-50
Angular grid pruning method      GridPruning ... 3 (G Style)
Weight generation scheme         WeightScheme... Becke
Basis function cutoff            BFCut       ...    1.0000e-11
Integration weight cutoff        WCut        ...    1.0000e-14
Grids for H and He will be reduced by one unit

# of grid points (after initial pruning)     ...  41854 (   0.0 sec)
# of grid points (after weights+screening)   ...  37690 (   0.2 sec)
nearest neighbour list constructed           ...    0.0 sec
Grid point re-assignment to atoms done       ...    0.0 sec
Grid point division into batches done        ...    0.0 sec
Reduced shell lists constructed in    0.1 sec

Total number of grid points                  ...    37690
Total number of batches                      ...      619
Average number of points per batch           ...       60
Average number of grid points per atom       ...      563
Average number of shells per batch           ...   140.85 (23.91%)
Average number of basis functions per batch  ...   369.74 (23.93%)
Average number of large shells per batch     ...   100.22 (71.15%)
Average number of large basis fcns per batch ...   267.93 (72.46%)
Maximum spatial batch extension              ...   6.12, 13.35, 17.13 au
Average spatial batch extension              ...   0.10,  0.15,  0.17 au

Overlap Fitting                  UseSFitting ... on
Constructing numerical overlap ... done (      0.2 sec)
Inverting numerical overlap    ... done (      0.3 sec)
Obtaining analytic overlap     ... done (      0.0 sec)
Final contraction and storage  ... done (      1.0 sec)


General Integration Accuracy     IntAcc      ...  4.010
Radial Grid Type                 RadialGrid  ... Gauss-Chebyshev
Angular Grid (max. acc.)         AngularGrid ... Lebedev-110
Angular grid pruning method      GridPruning ... 3 (G Style)
Weight generation scheme         WeightScheme... Becke
Basis function cutoff            BFCut       ...    1.0000e-11
Integration weight cutoff        WCut        ...    1.0000e-14
Grids for H and He will be reduced by one unit

# of grid points (after initial pruning)     ...  81248 (   0.0 sec)
# of grid points (after weights+screening)   ...  72563 (   0.3 sec)
nearest neighbour list constructed           ...    0.0 sec
Grid point re-assignment to atoms done       ...    0.0 sec
Grid point division into batches done        ...    0.1 sec
Reduced shell lists constructed in    0.2 sec

Total number of grid points                  ...    72563
Total number of batches                      ...     1167
Average number of points per batch           ...       62
Average number of grid points per atom       ...     1083
Average number of shells per batch           ...   140.30 (23.82%)
Average number of basis functions per batch  ...   369.38 (23.91%)
Average number of large shells per batch     ...    99.14 (70.66%)
Average number of large basis fcns per batch ...   263.90 (71.44%)
Maximum spatial batch extension              ...   8.47, 15.58, 23.43 au
Average spatial batch extension              ...   0.10,  0.13,  0.15 au

Overlap Fitting                  UseSFitting ... on
Constructing numerical overlap ... done (      0.3 sec)
Inverting numerical overlap    ... done (      0.3 sec)
Obtaining analytic overlap     ... done (      0.0 sec)
Final contraction and storage  ... done (      1.0 sec)

Time for X-Grid setup             =    6.433 sec
--------------
SCF ITERATIONS
--------------
ITER       Energy         Delta-E        Max-DP      RMS-DP      [F,P]     Damp
               ***  Starting incremental Fock matrix formation  ***
  0  -2874.0315957232   0.000000000000 0.06016181  0.00051238  0.1646459 0.7000
  1  -2874.4007323368  -0.369136613579 0.06729007  0.00044315  0.0919038 0.7000
                               ***Turning on DIIS***
  2  -2874.5871466910  -0.186414354224 0.14464658  0.00098939  0.0447022 0.0000
  3  -2874.8890639350  -0.301917244028 0.04405975  0.00029798  0.0411783 0.0000
  4  -2874.9400831613  -0.051019226315 0.01868194  0.00012889  0.0078292 0.0000
  5  -2874.9421770424  -0.002093881106 0.00746714  0.00005078  0.0053548 0.0000
                      *** Initiating the SOSCF procedure ***
                           *** Shutting down DIIS ***
                      *** Re-Reading the Fockian *** 
                      *** Removing any level shift *** 
ITER      Energy       Delta-E        Grad      Rot      Max-DP    RMS-DP
  6  -2874.94278131  -0.0006042666  0.002523  0.002523  0.003731  0.000029
               *** Restarting incremental Fock matrix formation ***
  7  -2874.94304585  -0.0002645437  0.001559  0.004703  0.022214  0.000139
  8  -2874.94317066  -0.0001248116  0.000575  0.005502  0.016072  0.000102
  9  -2874.94320180  -0.0000311350  0.000595  0.001330  0.013344  0.000086
 10  -2874.94322297  -0.0000211734  0.000096  0.000488  0.002044  0.000013
 11  -2874.94322377  -0.0000008020  0.000087  0.000257  0.001218  0.000008
 12  -2874.94322452  -0.0000007503  0.000024  0.000132  0.000439  0.000002
 13  -2874.94322448   0.0000000411  0.000011  0.000059  0.000413  0.000002
 14  -2874.94322461  -0.0000001226  0.000004  0.000020  0.000482  0.000002
 15  -2874.94322468  -0.0000000743  0.000003  0.000008  0.000236  0.000001
                  ***Gradient check signals convergence***
              ***Rediagonalizing the Fockian in SOSCF/NRSCF***

               *****************************************************
               *                     SUCCESS                       *
               *           SCF CONVERGED AFTER  16 CYCLES          *
               *****************************************************

Old exchange energy                            =    -94.852855931 Eh
New exchange energy                            =    -94.853674426 Eh
Exchange energy change after final integration =     -0.000818495 Eh
Total energy after final integration           =  -2874.944043046 Eh
Final COS-X integration done in                =    61.190 sec

----------------
TOTAL SCF ENERGY
----------------

Total Energy       :        -2874.94404305 Eh          -78231.20461 eV

Components:
Nuclear Repulsion  :         5008.75450482 Eh          136295.13919 eV
Electronic Energy  :        -7883.69854787 Eh         -214526.34380 eV
One Electron Energy:       -13895.38062235 Eh         -378112.52960 eV
Two Electron Energy:         6011.68207448 Eh          163586.18581 eV

Virial components:
Potential Energy   :        -5738.49466321 Eh         -156152.37842 eV
Kinetic Energy     :         2863.55062016 Eh           77921.17381 eV
Virial Ratio       :            2.00397877


DFT components:
N(Alpha)           :      162.999961453649 electrons
N(Beta)            :      162.999961453649 electrons
N(Total)           :      325.999922907297 electrons
E(XC)              :     -223.911342761099 Eh       

---------------
SCF CONVERGENCE
---------------

  Last Energy change         ...    1.3008e-07  Tolerance :   1.0000e-08
  Last MAX-Density change    ...    2.7203e-14  Tolerance :   1.0000e-07
  Last RMS-Density change    ...    1.1351e-16  Tolerance :   5.0000e-09
  Last Orbital Gradient      ...    1.0561e-06  Tolerance :   1.0000e-05
  Last Orbital Rotation      ...    4.1417e-06  Tolerance :   1.0000e-05

             **** THE GBW FILE WAS UPDATED (total.gbw) ****
             **** DENSITY FILE WAS UPDATED (total.scfp.tmp) ****
             **** ENERGY FILE WAS UPDATED (total.en.tmp) ****
----------------
ORBITAL ENERGIES
----------------

  NO   OCC          E(Eh)            E(eV) 
   0   2.0000     -89.001811     -2421.8624 
   1   2.0000     -88.982981     -2421.3500 
   2   2.0000     -88.981665     -2421.3142 
   3   2.0000     -14.447304      -393.1311 
   4   2.0000     -14.445973      -393.0949 
   5   2.0000     -14.445913      -393.0933 
   6   2.0000     -14.445711      -393.0878 
   7   2.0000     -10.351475      -281.6779 
   8   2.0000     -10.350599      -281.6541 
   9   2.0000     -10.341244      -281.3995 
  10   2.0000     -10.338600      -281.3276 
  11   2.0000     -10.338355      -281.3209 
  12   2.0000     -10.337580      -281.2999 
  13   2.0000     -10.334502      -281.2161 
  14   2.0000     -10.330797      -281.1153 
  15   2.0000     -10.328573      -281.0548 
  16   2.0000     -10.328328      -281.0481 
  17   2.0000     -10.327347      -281.0214 
  18   2.0000     -10.319423      -280.8058 
  19   2.0000     -10.314964      -280.6844 
  20   2.0000     -10.311364      -280.5865 
  21   2.0000     -10.311342      -280.5859 
  22   2.0000     -10.309296      -280.5302 
  23   2.0000     -10.304398      -280.3969 
  24   2.0000     -10.302820      -280.3540 
  25   2.0000     -10.302487      -280.3449 
  26   2.0000     -10.301983      -280.3312 
  27   2.0000     -10.301427      -280.3161 
  28   2.0000     -10.301384      -280.3149 
  29   2.0000     -10.300557      -280.2924 
  30   2.0000     -10.298704      -280.2420 
  31   2.0000     -10.298144      -280.2267 
  32   2.0000     -10.295681      -280.1597 
  33   2.0000     -10.293432      -280.0985 
  34   2.0000     -10.293018      -280.0873 
  35   2.0000     -10.292070      -280.0615 
  36   2.0000     -10.291837      -280.0551 
  37   2.0000     -10.291616      -280.0491 
  38   2.0000     -10.291608      -280.0489 
  39   2.0000     -10.290554      -280.0202 
  40   2.0000     -10.289987      -280.0048 
  41   2.0000     -10.289922      -280.0030 
  42   2.0000     -10.289874      -280.0017 
  43   2.0000     -10.288867      -279.9743 
  44   2.0000     -10.288588      -279.9667 
  45   2.0000      -8.097300      -220.3387 
  46   2.0000      -8.079339      -219.8500 
  47   2.0000      -8.078131      -219.8171 
  48   2.0000      -6.050181      -164.6338 
  49   2.0000      -6.046200      -164.5255 
  50   2.0000      -6.045273      -164.5003 
  51   2.0000      -6.032659      -164.1570 
  52   2.0000      -6.031425      -164.1234 
  53   2.0000      -6.028402      -164.0412 
  54   2.0000      -6.027187      -164.0081 
  55   2.0000      -6.026473      -163.9887 
  56   2.0000      -6.025288      -163.9564 
  57   2.0000      -1.101220       -29.9657 
  58   2.0000      -1.100942       -29.9582 
  59   2.0000      -1.033287       -28.1172 
  60   2.0000      -1.031026       -28.0556 
  61   2.0000      -1.017435       -27.6858 
  62   2.0000      -1.006606       -27.3911 
  63   2.0000      -0.995376       -27.0855 
  64   2.0000      -0.986525       -26.8447 
  65   2.0000      -0.980765       -26.6880 
  66   2.0000      -0.979021       -26.6405 
  67   2.0000      -0.961340       -26.1594 
  68   2.0000      -0.911785       -24.8109 
  69   2.0000      -0.908057       -24.7095 
  70   2.0000      -0.893340       -24.3090 
  71   2.0000      -0.880967       -23.9723 
  72   2.0000      -0.878566       -23.9070 
  73   2.0000      -0.871875       -23.7249 
  74   2.0000      -0.870425       -23.6855 
  75   2.0000      -0.868283       -23.6272 
  76   2.0000      -0.867950       -23.6181 
  77   2.0000      -0.847451       -23.0603 
  78   2.0000      -0.837148       -22.7800 
  79   2.0000      -0.831153       -22.6168 
  80   2.0000      -0.808465       -21.9995 
  81   2.0000      -0.799733       -21.7618 
  82   2.0000      -0.783736       -21.3265 
  83   2.0000      -0.762791       -20.7566 
  84   2.0000      -0.754305       -20.5257 
  85   2.0000      -0.733521       -19.9601 
  86   2.0000      -0.727388       -19.7932 
  87   2.0000      -0.721523       -19.6336 
  88   2.0000      -0.719300       -19.5732 
  89   2.0000      -0.713251       -19.4085 
  90   2.0000      -0.706218       -19.2172 
  91   2.0000      -0.703039       -19.1307 
  92   2.0000      -0.689878       -18.7725 
  93   2.0000      -0.676803       -18.4167 
  94   2.0000      -0.668313       -18.1857 
  95   2.0000      -0.658252       -17.9119 
  96   2.0000      -0.652277       -17.7494 
  97   2.0000      -0.640572       -17.4309 
  98   2.0000      -0.638466       -17.3736 
  99   2.0000      -0.632399       -17.2085 
 100   2.0000      -0.630597       -17.1594 
 101   2.0000      -0.613222       -16.6866 
 102   2.0000      -0.602110       -16.3842 
 103   2.0000      -0.594143       -16.1675 
 104   2.0000      -0.586706       -15.9651 
 105   2.0000      -0.584316       -15.9000 
 106   2.0000      -0.577081       -15.7032 
 107   2.0000      -0.571785       -15.5591 
 108   2.0000      -0.568259       -15.4631 
 109   2.0000      -0.559161       -15.2155 
 110   2.0000      -0.555938       -15.1278 
 111   2.0000      -0.552893       -15.0450 
 112   2.0000      -0.550924       -14.9914 
 113   2.0000      -0.544107       -14.8059 
 114   2.0000      -0.542781       -14.7698 
 115   2.0000      -0.541002       -14.7214 
 116   2.0000      -0.537218       -14.6184 
 117   2.0000      -0.527054       -14.3419 
 118   2.0000      -0.525687       -14.3047 
 119   2.0000      -0.525267       -14.2932 
 120   2.0000      -0.518186       -14.1006 
 121   2.0000      -0.516333       -14.0501 
 122   2.0000      -0.513719       -13.9790 
 123   2.0000      -0.506965       -13.7952 
 124   2.0000      -0.501077       -13.6350 
 125   2.0000      -0.495006       -13.4698 
 126   2.0000      -0.492946       -13.4137 
 127   2.0000      -0.489223       -13.3124 
 128   2.0000      -0.486340       -13.2340 
 129   2.0000      -0.484459       -13.1828 
 130   2.0000      -0.481731       -13.1086 
 131   2.0000      -0.475114       -12.9285 
 132   2.0000      -0.472274       -12.8512 
 133   2.0000      -0.462145       -12.5756 
 134   2.0000      -0.460150       -12.5213 
 135   2.0000      -0.458228       -12.4690 
 136   2.0000      -0.455675       -12.3995 
 137   2.0000      -0.450632       -12.2623 
 138   2.0000      -0.448545       -12.2055 
 139   2.0000      -0.446854       -12.1595 
 140   2.0000      -0.446678       -12.1547 
 141   2.0000      -0.443313       -12.0632 
 142   2.0000      -0.441932       -12.0256 
 143   2.0000      -0.437888       -11.9155 
 144   2.0000      -0.430512       -11.7148 
 145   2.0000      -0.425690       -11.5836 
 146   2.0000      -0.417807       -11.3691 
 147   2.0000      -0.414011       -11.2658 
 148   2.0000      -0.387055       -10.5323 
 149   2.0000      -0.371562       -10.1107 
 150   2.0000      -0.367491        -9.9999 
 151   2.0000      -0.363546        -9.8926 
 152   2.0000      -0.358482        -9.7548 
 153   2.0000      -0.349183        -9.5018 
 154   2.0000      -0.347627        -9.4594 
 155   2.0000      -0.347315        -9.4509 
 156   2.0000      -0.340691        -9.2707 
 157   2.0000      -0.339679        -9.2431 
 158   2.0000      -0.337305        -9.1785 
 159   2.0000      -0.311466        -8.4754 
 160   2.0000      -0.306417        -8.3380 
 161   2.0000      -0.292448        -7.9579 
 162   2.0000      -0.270933        -7.3725 
 163   0.0000      -0.042247        -1.1496 
 164   0.0000      -0.035687        -0.9711 
 165   0.0000       0.009040         0.2460 
 166   0.0000       0.021105         0.5743 
 167   0.0000       0.030618         0.8332 
 168   0.0000       0.043820         1.1924 
 169   0.0000       0.045832         1.2472 
 170   0.0000       0.049154         1.3375 
 171   0.0000       0.065665         1.7868 
 172   0.0000       0.067354         1.8328 
 173   0.0000       0.072415         1.9705 
 174   0.0000       0.073902         2.0110 
 175   0.0000       0.095514         2.5991 
 176   0.0000       0.097492         2.6529 
 177   0.0000       0.112334         3.0568 
 178   0.0000       0.118517         3.2250 
 179   0.0000       0.120440         3.2773 
 180   0.0000       0.123356         3.3567 
 181   0.0000       0.129079         3.5124 
 182   0.0000       0.130978         3.5641 
 183   0.0000       0.134896         3.6707 
 184   0.0000       0.137875         3.7518 
 185   0.0000       0.142625         3.8810 
 186   0.0000       0.143356         3.9009 
 187   0.0000       0.146789         3.9943 
 188   0.0000       0.148931         4.0526 
 189   0.0000       0.154186         4.1956 
 190   0.0000       0.155314         4.2263 
 191   0.0000       0.156851         4.2681 
 192   0.0000       0.158901         4.3239 
 193   0.0000       0.164966         4.4890 
 194   0.0000       0.167682         4.5629 
 195   0.0000       0.168609         4.5881 
 196   0.0000       0.171541         4.6679 
 197   0.0000       0.174335         4.7439 
 198   0.0000       0.176822         4.8116 
 199   0.0000       0.180551         4.9130 
 200   0.0000       0.184049         5.0082 
 201   0.0000       0.186664         5.0794 
 202   0.0000       0.189499         5.1565 
 203   0.0000       0.190669         5.1884 
 204   0.0000       0.196167         5.3380 
 205   0.0000       0.198352         5.3974 
 206   0.0000       0.200822         5.4646 
 207   0.0000       0.203829         5.5465 
 208   0.0000       0.205848         5.6014 
 209   0.0000       0.207248         5.6395 
 210   0.0000       0.209774         5.7082 
 211   0.0000       0.216619         5.8945 
 212   0.0000       0.218865         5.9556 
 213   0.0000       0.222028         6.0417 
 214   0.0000       0.225561         6.1378 
 215   0.0000       0.233630         6.3574 
 216   0.0000       0.236120         6.4251 
 217   0.0000       0.240294         6.5387 
 218   0.0000       0.241385         6.5684 
 219   0.0000       0.244649         6.6572 
 220   0.0000       0.249910         6.8004 
 221   0.0000       0.253740         6.9046 
 222   0.0000       0.255581         6.9547 
 223   0.0000       0.258043         7.0217 
 224   0.0000       0.263485         7.1698 
 225   0.0000       0.267152         7.2696 
 226   0.0000       0.269180         7.3248 
 227   0.0000       0.270538         7.3617 
 228   0.0000       0.273136         7.4324 
 229   0.0000       0.276238         7.5168 
 230   0.0000       0.277792         7.5591 
 231   0.0000       0.278366         7.5747 
 232   0.0000       0.280440         7.6311 
 233   0.0000       0.282227         7.6798 
 234   0.0000       0.284863         7.7515 
 235   0.0000       0.287194         7.8149 
 236   0.0000       0.289325         7.8729 
 237   0.0000       0.291914         7.9434 
 238   0.0000       0.292853         7.9689 
 239   0.0000       0.293559         7.9881 
 240   0.0000       0.294525         8.0144 
 241   0.0000       0.298287         8.1168 
 242   0.0000       0.299652         8.1540 
 243   0.0000       0.301012         8.1909 
 244   0.0000       0.305051         8.3009 
 245   0.0000       0.308205         8.3867 
 246   0.0000       0.311319         8.4714 
 247   0.0000       0.314318         8.5530 
 248   0.0000       0.316008         8.5990 
 249   0.0000       0.319925         8.7056 
 250   0.0000       0.321347         8.7443 
 251   0.0000       0.322928         8.7873 
 252   0.0000       0.323970         8.8157 
 253   0.0000       0.326576         8.8866 
 254   0.0000       0.328060         8.9270 
 255   0.0000       0.331764         9.0278 
 256   0.0000       0.333562         9.0767 
 257   0.0000       0.335639         9.1332 
 258   0.0000       0.336564         9.1584 
 259   0.0000       0.338873         9.2212 
 260   0.0000       0.340710         9.2712 
 261   0.0000       0.342078         9.3084 
 262   0.0000       0.342929         9.3316 
 263   0.0000       0.344955         9.3867 
 264   0.0000       0.346733         9.4351 
 265   0.0000       0.349013         9.4971 
 266   0.0000       0.350686         9.5426 
 267   0.0000       0.351832         9.5738 
 268   0.0000       0.355881         9.6840 
 269   0.0000       0.357884         9.7385 
 270   0.0000       0.359816         9.7911 
 271   0.0000       0.362642         9.8680 
 272   0.0000       0.366589         9.9754 
 273   0.0000       0.369472        10.0538 
 274   0.0000       0.371152        10.0995 
 275   0.0000       0.376742        10.2517 
 276   0.0000       0.377822        10.2811 
 277   0.0000       0.379031        10.3140 
 278   0.0000       0.380883        10.3644 
 279   0.0000       0.382761        10.4154 
 280   0.0000       0.383195        10.4273 
 281   0.0000       0.386625        10.5206 
 282   0.0000       0.389227        10.5914 
 283   0.0000       0.391916        10.6646 
 284   0.0000       0.394571        10.7368 
 285   0.0000       0.400039        10.8856 
 286   0.0000       0.402670        10.9572 
 287   0.0000       0.404355        11.0031 
 288   0.0000       0.405479        11.0337 
 289   0.0000       0.409245        11.1361 
 290   0.0000       0.410452        11.1690 
 291   0.0000       0.411182        11.1888 
 292   0.0000       0.413793        11.2599 
 293   0.0000       0.416926        11.3451 
 294   0.0000       0.419946        11.4273 
 295   0.0000       0.420567        11.4442 
 296   0.0000       0.423913        11.5353 
 297   0.0000       0.428157        11.6507 
 298   0.0000       0.428502        11.6601 
 299   0.0000       0.429401        11.6846 
 300   0.0000       0.432413        11.7666 
 301   0.0000       0.435657        11.8548 
 302   0.0000       0.436470        11.8770 
 303   0.0000       0.439040        11.9469 
 304   0.0000       0.440030        11.9738 
 305   0.0000       0.442645        12.0450 
 306   0.0000       0.446160        12.1406 
 307   0.0000       0.448212        12.1965 
 308   0.0000       0.452282        12.3072 
 309   0.0000       0.452848        12.3226 
 310   0.0000       0.454029        12.3547 
 311   0.0000       0.455821        12.4035 
 312   0.0000       0.458407        12.4739 
 313   0.0000       0.458967        12.4891 
 314   0.0000       0.462208        12.5773 
 315   0.0000       0.463619        12.6157 
 316   0.0000       0.466261        12.6876 
 317   0.0000       0.467481        12.7208 
 318   0.0000       0.468972        12.7614 
 319   0.0000       0.471291        12.8245 
 320   0.0000       0.475436        12.9373 
 321   0.0000       0.476159        12.9570 
 322   0.0000       0.478766        13.0279 
 323   0.0000       0.480629        13.0786 
 324   0.0000       0.482580        13.1317 
 325   0.0000       0.485136        13.2012 
 326   0.0000       0.486138        13.2285 
 327   0.0000       0.489316        13.3150 
 328   0.0000       0.492895        13.4124 
 329   0.0000       0.493836        13.4380 
 330   0.0000       0.494906        13.4671 
 331   0.0000       0.496161        13.5012 
 332   0.0000       0.498116        13.5544 
 333   0.0000       0.499810        13.6005 
 334   0.0000       0.503376        13.6976 
 335   0.0000       0.505011        13.7420 
 336   0.0000       0.505357        13.7515 
 337   0.0000       0.508079        13.8255 
 338   0.0000       0.510413        13.8890 
 339   0.0000       0.512565        13.9476 
 340   0.0000       0.515505        14.0276 
 341   0.0000       0.517264        14.0755 
 342   0.0000       0.520674        14.1683 
 343   0.0000       0.523153        14.2357 
 344   0.0000       0.525396        14.2967 
 345   0.0000       0.526404        14.3242 
 346   0.0000       0.527907        14.3651 
 347   0.0000       0.530960        14.4482 
 348   0.0000       0.535859        14.5815 
 349   0.0000       0.537458        14.6250 
 350   0.0000       0.539608        14.6835 
 351   0.0000       0.542136        14.7523 
 352   0.0000       0.546892        14.8817 
 353   0.0000       0.548415        14.9231 
 354   0.0000       0.549022        14.9397 
 355   0.0000       0.552578        15.0364 
 356   0.0000       0.554923        15.1002 
 357   0.0000       0.560061        15.2400 
 358   0.0000       0.561667        15.2837 
 359   0.0000       0.566391        15.4123 
 360   0.0000       0.568035        15.4570 
 361   0.0000       0.571268        15.5450 
 362   0.0000       0.572574        15.5805 
 363   0.0000       0.576793        15.6953 
 364   0.0000       0.577149        15.7050 
 365   0.0000       0.580538        15.7972 
 366   0.0000       0.581911        15.8346 
 367   0.0000       0.584170        15.8961 
 368   0.0000       0.584866        15.9150 
 369   0.0000       0.587759        15.9937 
 370   0.0000       0.590338        16.0639 
 371   0.0000       0.592694        16.1280 
 372   0.0000       0.595529        16.2052 
 373   0.0000       0.598784        16.2937 
 374   0.0000       0.602505        16.3950 
 375   0.0000       0.603772        16.4295 
 376   0.0000       0.606450        16.5023 
 377   0.0000       0.609330        16.5807 
 378   0.0000       0.610253        16.6058 
 379   0.0000       0.617774        16.8105 
 380   0.0000       0.621448        16.9105 
 381   0.0000       0.625875        17.0309 
 382   0.0000       0.629162        17.1204 
 383   0.0000       0.631103        17.1732 
 384   0.0000       0.634201        17.2575 
 385   0.0000       0.634894        17.2764 
 386   0.0000       0.635353        17.2888 
 387   0.0000       0.643266        17.5042 
 388   0.0000       0.643868        17.5206 
 389   0.0000       0.647744        17.6260 
 390   0.0000       0.652807        17.7638 
 391   0.0000       0.659664        17.9504 
 392   0.0000       0.661497        18.0002 
 393   0.0000       0.669145        18.2084 
 394   0.0000       0.670127        18.2351 
 395   0.0000       0.674030        18.3413 
 396   0.0000       0.674844        18.3634 
 397   0.0000       0.676620        18.4118 
 398   0.0000       0.679858        18.4999 
 399   0.0000       0.684361        18.6224 
 400   0.0000       0.687221        18.7002 
 401   0.0000       0.691230        18.8093 
 402   0.0000       0.693781        18.8787 
 403   0.0000       0.697502        18.9800 
 404   0.0000       0.699057        19.0223 
 405   0.0000       0.702784        19.1237 
 406   0.0000       0.703398        19.1404 
 407   0.0000       0.707036        19.2394 
 408   0.0000       0.711423        19.3588 
 409   0.0000       0.715042        19.4573 
 410   0.0000       0.717472        19.5234 
 411   0.0000       0.718313        19.5463 
 412   0.0000       0.723754        19.6943 
 413   0.0000       0.725342        19.7376 
 414   0.0000       0.726844        19.7784 
 415   0.0000       0.728059        19.8115 
 416   0.0000       0.728355        19.8196 
 417   0.0000       0.732703        19.9379 
 418   0.0000       0.733786        19.9673 
 419   0.0000       0.736325        20.0364 
 420   0.0000       0.738263        20.0892 
 421   0.0000       0.740612        20.1531 
 422   0.0000       0.742837        20.2136 
 423   0.0000       0.746621        20.3166 
 424   0.0000       0.749705        20.4005 
 425   0.0000       0.751063        20.4375 
 426   0.0000       0.753397        20.5010 
 427   0.0000       0.756823        20.5942 
 428   0.0000       0.759403        20.6644 
 429   0.0000       0.761889        20.7321 
 430   0.0000       0.762358        20.7448 
 431   0.0000       0.765990        20.8437 
 432   0.0000       0.768241        20.9049 
 433   0.0000       0.770563        20.9681 
 434   0.0000       0.774689        21.0804 
 435   0.0000       0.777376        21.1535 
 436   0.0000       0.777676        21.1616 
 437   0.0000       0.780521        21.2391 
 438   0.0000       0.783916        21.3315 
 439   0.0000       0.784934        21.3591 
 440   0.0000       0.787940        21.4409 
 441   0.0000       0.790369        21.5070 
 442   0.0000       0.792539        21.5661 
 443   0.0000       0.796733        21.6802 
 444   0.0000       0.799852        21.7651 
 445   0.0000       0.801293        21.8043 
 446   0.0000       0.806393        21.9431 
 447   0.0000       0.809468        22.0267 
 448   0.0000       0.810081        22.0434 
 449   0.0000       0.810891        22.0655 
 450   0.0000       0.820648        22.3310 
 451   0.0000       0.820934        22.3388 
 452   0.0000       0.824793        22.4438 
 453   0.0000       0.825895        22.4737 
 454   0.0000       0.828337        22.5402 
 455   0.0000       0.830468        22.5982 
 456   0.0000       0.833885        22.6912 
 457   0.0000       0.836851        22.7719 
 458   0.0000       0.837944        22.8016 
 459   0.0000       0.839114        22.8335 
 460   0.0000       0.843012        22.9395 
 461   0.0000       0.843684        22.9578 
 462   0.0000       0.852562        23.1994 
 463   0.0000       0.855573        23.2813 
 464   0.0000       0.858879        23.3713 
 465   0.0000       0.862491        23.4696 
 466   0.0000       0.864905        23.5353 
 467   0.0000       0.869882        23.6707 
 468   0.0000       0.871082        23.7034 
 469   0.0000       0.873372        23.7657 
 470   0.0000       0.879067        23.9206 
 471   0.0000       0.882737        24.0205 
 472   0.0000       0.884815        24.0770 
 473   0.0000       0.886020        24.1098 
 474   0.0000       0.888767        24.1846 
 475   0.0000       0.894962        24.3532 
 476   0.0000       0.896185        24.3864 
 477   0.0000       0.898661        24.4538 
 478   0.0000       0.901887        24.5416 
 479   0.0000       0.903950        24.5977 
 480   0.0000       0.905360        24.6361 
 481   0.0000       0.908375        24.7181 
 482   0.0000       0.915479        24.9115 
 483   0.0000       0.917463        24.9654 
 484   0.0000       0.920939        25.0600 
 485   0.0000       0.922108        25.0918 
 486   0.0000       0.926544        25.2125 
 487   0.0000       0.928875        25.2760 
 488   0.0000       0.934855        25.4387 
 489   0.0000       0.937259        25.5041 
 490   0.0000       0.940439        25.5906 
 491   0.0000       0.942981        25.6598 
 492   0.0000       0.948204        25.8019 
 493   0.0000       0.952074        25.9072 
 494   0.0000       0.959638        26.1131 
 495   0.0000       0.962536        26.1919 
 496   0.0000       0.965815        26.2811 
 497   0.0000       0.966796        26.3079 
 498   0.0000       0.971899        26.4467 
 499   0.0000       0.973864        26.5002 
 500   0.0000       0.977229        26.5918 
 501   0.0000       0.981731        26.7142 
 502   0.0000       0.983926        26.7740 
 503   0.0000       0.985885        26.8273 
 504   0.0000       0.989364        26.9220 
 505   0.0000       0.991422        26.9780 
 506   0.0000       0.997013        27.1301 
 507   0.0000       1.001056        27.2401 
 508   0.0000       1.004006        27.3204 
 509   0.0000       1.004437        27.3321 
 510   0.0000       1.011938        27.5362 
 511   0.0000       1.012663        27.5560 
 512   0.0000       1.014027        27.5931 
 513   0.0000       1.016835        27.6695 
 514   0.0000       1.022610        27.8266 
 515   0.0000       1.026215        27.9247 
 516   0.0000       1.028476        27.9862 
 517   0.0000       1.035260        28.1709 
 518   0.0000       1.043844        28.4044 
[...]
 291   9.231     134.3   0.010134   0.009832   0.130309   0.318588     0.07 (  98-> 132)    0.05 (  95-> 108)    0.03 (  66-> 104)
 292   9.237     134.2   0.010682   0.009442  36.763642  33.837153     0.06 (  92-> 119)    0.03 (  93-> 119)    0.02 (  94-> 122)
 293   9.238     134.2   0.008930   0.007157  -13.930385  -12.832752     0.16 (  59-> 105)    0.03 (  81-> 105)    0.03 (  80-> 111)
 294   9.248     134.1   0.027106   0.024734  -19.063154  -18.155124     0.04 (  88-> 106)    0.03 (  82-> 111)    0.02 (  84-> 111)
 295   9.253     134.0   0.019874   0.018110  23.813554  22.887976     0.10 ( 103-> 123)    0.05 ( 100-> 143)    0.03 (  95-> 128)
 296   9.259     133.9   0.040593   0.033963  -3.756284  -3.426234     0.02 (  84-> 111)    0.02 ( 103-> 118)    0.02 ( 103-> 123)
 297   9.272     133.7   0.030259   0.027025  -14.419815  -15.419785     0.06 (  93-> 117)    0.04 (  62-> 105)    0.03 (  98-> 111)
 298   9.276     133.7   0.003755   0.003764   0.576309  -0.239246     0.05 (  87-> 106)    0.03 (  95-> 108)    0.03 (  81-> 104)
 299   9.278     133.6   0.012391   0.010629  -9.270456  -8.313984     0.15 (  98-> 111)    0.04 (  87-> 106)    0.03 (  99-> 111)
 300   9.287     133.5   0.007348   0.006533  12.068038  10.905759     0.23 (  98-> 111)    0.04 (  98-> 132)    0.03 (  99-> 111)
 301   9.297     133.4   0.090847   0.079550  14.488638  13.920957     0.07 (  73-> 108)    0.06 (  98-> 111)    0.06 (  69-> 108)
 302   9.299     133.3   0.031010   0.025070  -65.524273  -57.909136     0.04 ( 103-> 146)    0.03 ( 103-> 144)    0.02 (  73-> 108)
 303   9.310     133.2   0.034386   0.030248  -17.757950  -16.909465     0.04 (  97-> 143)    0.04 ( 100-> 143)    0.03 ( 103-> 122)
 304   9.319     133.0   0.008676   0.008037  -24.358650  -23.049986     0.06 (  98-> 111)    0.05 ( 102-> 118)    0.04 ( 103-> 122)
 305   9.321     133.0   0.010814   0.009109   9.298814   6.064156     0.05 (  95-> 109)    0.04 (  97-> 113)    0.04 ( 103-> 146)
 306   9.332     132.9   0.010814   0.009185   4.565840   4.552094     0.19 (  97-> 113)    0.12 (  97-> 109)    0.04 (  96-> 113)
 307   9.338     132.8   0.031399   0.028515  25.679820  26.899559     0.04 (  55-> 105)    0.04 (  97-> 109)    0.03 (  97-> 113)
 308   9.350     132.6   0.013104   0.010958   9.633006  12.855083     0.08 ( 103-> 122)    0.04 (  98-> 127)    0.03 (  98-> 111)
 309   9.354     132.5   0.011912   0.010974  -34.587301  -32.458464     0.24 (  95-> 109)    0.04 (  87-> 106)    0.02 (  87-> 107)
 310   9.360     132.5   0.012318   0.011604  -0.344218   0.151725     0.05 (  67-> 110)    0.03 (  87-> 110)    0.03 (  93-> 112)
 311   9.368     132.4   0.001046   0.000627  -5.472575  -4.262622     0.04 (  95-> 109)    0.03 ( 102-> 118)    0.02 ( 100-> 144)
 312   9.380     132.2   0.022894   0.021281  14.660174  11.407069     0.06 (  94-> 127)    0.06 (  94-> 120)    0.03 (  73-> 108)
 313   9.384     132.1   0.012819   0.011339  -1.205870  -4.548244     0.05 (  72-> 105)    0.04 (  67-> 105)    0.04 (  95-> 109)
 314   9.401     131.9   0.053248   0.048102  -4.423538  -1.527207     0.03 (  95-> 109)    0.03 (  87-> 114)    0.02 (  95-> 121)
 315   9.414     131.7   0.005875   0.004800   5.835270   4.922307     0.13 (  74-> 115)    0.08 (  73-> 115)    0.08 (  48-> 104)
 316   9.417     131.7   0.002514   0.001913  -18.654311  -16.278519     0.03 (  99-> 110)    0.03 ( 103-> 122)    0.02 (  88-> 106)
 317   9.424     131.6   0.000576   0.000446  -1.781666  -1.718469     0.27 (  99-> 110)    0.03 (  99-> 111)    0.02 ( 103-> 122)
 318   9.427     131.5   0.003023   0.002199   7.224673   5.843065     0.05 (  99-> 110)    0.04 (  95-> 109)    0.04 (  97-> 109)
 319   9.428     131.5   0.012875   0.011534  -11.180714  -10.545007     0.27 (  99-> 110)    0.03 (  92-> 110)    0.02 (  97-> 109)
 320   9.436     131.4   0.059271   0.050977  35.262689  31.756510     0.06 (  97-> 109)    0.05 (  99-> 110)    0.04 (  78-> 109)
 321   9.442     131.3   0.000887   0.000811  -5.071825  -6.722218     0.33 ( 100-> 115)    0.05 (  97-> 109)    0.02 (  97-> 113)
 322   9.445     131.3   0.012425   0.010482  -3.701624  -2.793939     0.05 (  80-> 107)    0.04 (  76-> 107)    0.02 ( 100-> 115)
 323   9.453     131.2   0.032128   0.029238  19.613551  17.832134     0.09 (  87-> 110)    0.09 (  97-> 109)    0.03 (  75-> 110)
 324   9.459     131.1   0.012487   0.010824   8.373203   7.945557     0.13 (  85-> 115)    0.03 (  65-> 104)    0.03 (  80-> 104)
 325   9.470     130.9   0.009778   0.008062   8.999494   5.321744     0.26 ( 100-> 115)    0.08 (  97-> 109)    0.03 (  96-> 113)
 326   9.473     130.9   0.011436   0.009055   0.678683   1.622898     0.12 (  97-> 109)    0.06 ( 100-> 115)    0.05 (  97-> 113)
 327   9.478     130.8   0.000905   0.000972  -0.263512  -0.504874     0.06 (  77-> 109)    0.05 (  97-> 109)    0.02 (  78-> 109)
 328   9.486     130.7   0.001084   0.001206   0.963855   0.738575     0.05 (  87-> 114)    0.03 (  87-> 111)    0.03 (  96-> 113)
 329   9.492     130.6   0.031151   0.027933  -16.295670  -15.723841     0.04 (  94-> 132)    0.03 (  94-> 119)    0.03 (  94-> 122)
 330   9.504     130.4   0.017439   0.014585  -13.682172  -12.592612     0.15 (  85-> 105)    0.02 (  63-> 106)    0.02 (  67-> 105)
 331   9.510     130.4   0.008886   0.007138  10.688610   9.582127     0.03 (  99-> 113)    0.03 (  89-> 113)    0.03 (  90-> 116)
 332   9.517     130.3   0.008066   0.006882  -7.803521  -6.645380     0.04 (  97-> 113)    0.03 (  96-> 113)    0.02 (  90-> 117)
 333   9.529     130.1   0.010066   0.009110  27.175047  24.289922     0.04 (  90-> 113)    0.03 (  80-> 104)    0.02 (  82-> 104)
 334   9.535     130.0   0.003717   0.002667  10.026392   8.065243     0.08 (  93-> 108)    0.07 (  96-> 108)    0.05 (  90-> 113)
 335   9.543     129.9   0.002197   0.001757   3.056614   2.815063     0.15 (  93-> 108)    0.11 (  96-> 108)    0.06 (  94-> 111)
 336   9.555     129.8   0.021148   0.017187  -20.230449  -18.116239     0.07 (  94-> 111)    0.04 ( 100-> 144)    0.03 (  74-> 109)
 337   9.559     129.7   0.012324   0.010850   0.791248   0.659436     0.13 ( 101-> 117)    0.06 ( 102-> 117)    0.03 ( 101-> 116)
 338   9.562     129.7   0.016193   0.013494  20.022111  17.919809     0.05 (  90-> 113)    0.04 ( 101-> 117)    0.03 (  81-> 113)
 339   9.577     129.5   0.012016   0.010282   8.135507   7.570323     0.20 (  94-> 111)    0.09 (  85-> 105)    0.04 (  93-> 108)
 340   9.579     129.4   0.001091   0.001051   5.685272   5.605121     0.03 (  98-> 119)    0.03 (  98-> 134)    0.03 (  89-> 107)
 341   9.583     129.4   0.001981   0.001749   0.378411   0.579562     0.08 (  94-> 111)    0.05 (  85-> 105)    0.02 (  98-> 134)
 342   9.590     129.3   0.015797   0.013364  23.646025  21.972059     0.09 (  94-> 111)    0.05 (  90-> 107)    0.05 (  89-> 107)
 343   9.596     129.2   0.006043   0.005997   6.198101   6.018336     0.04 ( 100-> 144)    0.03 (  95-> 134)    0.03 (  85-> 115)
 344   9.603     129.1   0.007622   0.006756  -26.081195  -24.544835     0.08 (  98-> 110)    0.05 (  92-> 110)    0.04 (  89-> 110)
 345   9.606     129.1   0.002190   0.001904  -4.727063  -4.559716     0.74 (  98-> 110)    0.06 (  98-> 111)    0.03 (  99-> 110)
 346   9.610     129.0   0.009847   0.009090   2.460898  -0.187298     0.11 (  71-> 108)    0.04 (  93-> 108)    0.03 (  85-> 115)
 347   9.613     129.0   0.000498   0.000339   1.572900   0.795056     0.03 (  94-> 110)    0.03 (  92-> 110)    0.02 (  89-> 110)
 348   9.622     128.9   0.022243   0.019589  41.448169  38.153446     0.04 (  89-> 107)    0.03 (  83-> 114)    0.03 (  90-> 107)
 349   9.628     128.8   0.037886   0.031346  -2.758685  -2.731330     0.03 (  95-> 134)    0.03 (  86-> 111)    0.02 (  85-> 115)
 350   9.635     128.7   0.000867   0.000898   0.391181  -0.810565     0.02 (  95-> 134)    0.02 (  95-> 119)    0.02 (  77-> 115)
 351   9.644     128.6   0.036189   0.032026  -41.180505  -39.172596     0.03 (  65-> 105)    0.03 (  89-> 107)    0.03 (  85-> 105)
 352   9.647     128.5   0.001317   0.001278  -2.942447  -2.479783     0.09 (  77-> 109)    0.07 (  77-> 115)    0.04 (  66-> 108)
 353   9.653     128.4   0.032925   0.027290  -44.671412  -39.423021     0.05 (  63-> 106)    0.03 (  85-> 105)    0.03 (  71-> 108)
 354   9.662     128.3   0.001965   0.001702  -10.082636  -9.399795     0.03 ( 103-> 134)    0.03 (  95-> 123)    0.02 ( 103-> 149)
 355   9.670     128.2   0.012015   0.010608   5.789552   5.016170     0.07 (  96-> 109)    0.04 (  95-> 121)    0.04 (  95-> 135)
 356   9.678     128.1   0.008186   0.007030   5.623296   5.614913     0.25 (  84-> 104)    0.03 (  64-> 106)    0.03 (  82-> 104)
 357   9.679     128.1   0.006572   0.005758   8.647240   8.269618     0.05 (  90-> 112)    0.04 (  92-> 110)    0.03 (  90-> 114)
 358   9.689     128.0   0.015983   0.013855  13.684613  12.154318     0.05 (  66-> 108)    0.03 (  96-> 109)    0.03 (  90-> 112)
 359   9.696     127.9   0.009554   0.007467  -24.999246  -22.127359     0.04 (  91-> 108)    0.03 (  66-> 108)    0.02 (  95-> 123)
 360   9.702     127.8   0.012339   0.011202  -5.040556  -7.396445     0.03 (  96-> 109)    0.02 ( 100-> 146)    0.02 (  84-> 104)
 361   9.706     127.7   0.010367   0.008264  10.527207   8.880539     0.17 (  84-> 104)    0.04 (  85-> 106)    0.04 (  96-> 109)
 362   9.712     127.7   0.006156   0.004676  -7.384039  -3.437975     0.05 (  96-> 109)    0.04 (  93-> 109)    0.03 (  95-> 128)
 363   9.714     127.6   0.032124   0.028110   3.914278   3.866401     0.04 (  93-> 109)    0.03 (  96-> 109)    0.03 (  84-> 104)
 364   9.721     127.5   0.008213   0.007117  -9.104400  -8.172412     0.29 (  91-> 108)    0.02 (  92-> 108)    0.02 (  96-> 109)
 365   9.727     127.5   0.008401   0.007322  17.248903  17.472725     0.04 (  63-> 106)    0.04 (  91-> 108)    0.02 (  81-> 113)
 366   9.733     127.4   0.019379   0.016847  -26.759502  -24.779514     0.33 (  91-> 108)    0.02 (  92-> 108)    0.02 (  97-> 146)
 367   9.740     127.3   0.022047   0.018402  18.182918  16.546217     0.03 (  97-> 116)    0.03 (  95-> 123)    0.03 (  97-> 146)
 368   9.748     127.2   0.042082   0.034476   8.259567   7.443916     0.03 (  91-> 108)    0.02 (  60-> 105)    0.01 ( 103-> 132)
 369   9.751     127.1   0.002814   0.002853  -5.101479  -4.716607     0.03 ( 103-> 161)    0.03 ( 102-> 149)    0.02 (  58-> 105)
 370   9.753     127.1   0.014966   0.013130  20.049708  17.916628     0.04 (  60-> 105)    0.02 ( 102-> 122)    0.02 ( 100-> 146)
 371   9.762     127.0   0.030317   0.025473  -0.127876   0.230455     0.03 ( 103-> 132)    0.02 (  97-> 116)    0.02 (  91-> 108)
 372   9.772     126.9   0.008863   0.007162  -5.930288  -6.440290     0.07 (  84-> 104)    0.05 (  82-> 104)    0.04 (  81-> 104)
 373   9.774     126.9   0.007817   0.006394   2.876389   1.500871     0.06 (  97-> 116)    0.03 (  56-> 105)    0.02 (  91-> 108)
 374   9.781     126.8   0.012895   0.009706  15.508600  13.427984     0.06 (  97-> 116)    0.04 (  91-> 113)    0.03 (  91-> 109)
 375   9.793     126.6   0.003748   0.003272   2.642384   2.590632     0.05 (  60-> 107)    0.05 (  60-> 105)    0.03 (  67-> 107)
 376   9.796     126.6   0.014540   0.013145  42.221468  39.120410     0.03 ( 103-> 151)    0.02 (  85-> 106)    0.02 ( 103-> 122)
 377   9.804     126.5   0.034248   0.030999  19.643347  18.578226     0.03 (  85-> 106)    0.03 (  95-> 127)    0.02 (  95-> 130)
 378   9.812     126.4   0.004766   0.004460  13.053471  12.554080     0.06 (  92-> 116)    0.03 (  96-> 113)    0.03 (  96-> 109)
 379   9.825     126.2   0.012285   0.011115   4.236156   0.927594     0.03 (  61-> 106)    0.02 (  91-> 109)    0.02 (  85-> 106)
 380   9.834     126.1   0.017961   0.014051  17.175866  14.837501     0.03 (  97-> 141)    0.02 (  97-> 143)    0.02 (  85-> 106)
 381   9.839     126.0   0.057111   0.046900  30.382369  26.943973     0.04 (  91-> 109)    0.02 (  85-> 106)    0.02 (  93-> 113)
 382   9.846     125.9   0.070460   0.059352  -41.408230  -38.821808     0.04 (  93-> 113)    0.03 (  90-> 108)    0.02 (  96-> 113)
 383   9.853     125.8   0.002287   0.001608  -7.028740  -5.476786     0.02 (  97-> 143)    0.02 (  97-> 141)    0.02 (  90-> 108)
 384   9.856     125.8   0.017275   0.014899  42.595616  40.758854     0.20 (  90-> 108)    0.13 (  92-> 108)    0.09 (  89-> 108)
 385   9.863     125.7   0.005480   0.004763  -19.373135  -17.267444     0.04 (  61-> 106)    0.02 (  90-> 108)    0.02 (  97-> 116)
 386   9.877     125.5   0.005374   0.004613  -7.171938  -6.633394     0.16 (  91-> 109)    0.04 (  85-> 106)    0.01 (  61-> 106)
 387   9.879     125.5   0.000384   0.000319   0.460200   0.478415     0.49 (  94-> 110)    0.12 (  87-> 112)    0.06 (  92-> 110)
 388   9.887     125.4   0.004125   0.003956   4.852101   7.117383     0.04 (  91-> 109)    0.03 ( 103-> 151)    0.03 ( 103-> 132)
 389   9.892     125.3   0.026438   0.023753  67.444213  62.034276     0.10 (  91-> 109)    0.03 (  92-> 115)    0.03 (  78-> 115)
 390   9.898     125.3   0.016857   0.016607  -37.262749  -36.135943     0.05 (  94-> 110)    0.04 (  87-> 112)    0.03 (  91-> 109)
 391   9.900     125.2   0.014134   0.012470  -38.000135  -34.576712     0.03 (  99-> 114)    0.03 ( 103-> 122)    0.03 (  99-> 117)
 392   9.914     125.1   0.008967   0.007621   5.628474   4.323115     0.15 (  87-> 112)    0.08 (  87-> 114)    0.06 (  94-> 110)
 393   9.918     125.0   0.035769   0.030897   3.633233   3.241218     0.12 (  87-> 112)    0.07 (  87-> 114)    0.04 (  97-> 144)
 394   9.926     124.9   0.034545   0.030150  32.285006  37.578331     0.05 (  88-> 118)    0.04 ( 100-> 119)    0.03 (  92-> 115)
 395   9.927     124.9   0.099783   0.082185   1.767124   1.249390     0.04 (  97-> 144)    0.02 (  98-> 139)    0.02 (  96-> 144)
 396   9.929     124.9   0.023858   0.018602  -0.455286  -0.913114     0.02 (  87-> 117)    0.02 ( 103-> 122)    0.02 ( 103-> 161)
 397   9.937     124.8   0.010110   0.007522  26.072738  22.679695     0.03 (  87-> 116)    0.03 ( 103-> 122)    0.02 (  58-> 105)
 398   9.942     124.7   0.034010   0.028625  -13.428367  -12.741049     0.37 (  83-> 104)    0.11 (  82-> 104)    0.03 (  87-> 117)
 399   9.949     124.6   0.034137   0.029040  21.463084  19.320005     0.10 (  83-> 104)    0.06 (  87-> 117)    0.03 (  82-> 104)
 400   9.952     124.6   0.005280   0.003798  16.364642  13.745290     0.14 (  99-> 112)    0.10 (  98-> 139)    0.05 (  98-> 137)
 401   9.953     124.6   0.023036   0.019220  -14.295905  -13.882807     0.03 (  87-> 116)    0.03 ( 102-> 121)    0.02 ( 100-> 119)
 402   9.960     124.5   0.000492   0.000418  -3.591603  -3.282442     0.05 (  60-> 105)    0.04 (  99-> 112)    0.03 (  93-> 109)
 403   9.968     124.4   0.003936   0.003003   4.270336   3.847729     0.16 (  99-> 112)    0.05 (  98-> 139)    0.02 (  98-> 137)
 404   9.972     124.3   0.021435   0.019820  -34.046741  -32.907582     0.08 (  98-> 139)    0.03 (  98-> 137)    0.02 (  88-> 118)
 405   9.977     124.3   0.046338   0.035823  65.347379  57.155070     0.15 (  88-> 118)    0.04 (  88-> 120)    0.03 (  60-> 105)
 406   9.983     124.2   0.017612   0.014957  15.245920  13.997492     0.04 (  97-> 113)    0.03 (  91-> 113)    0.03 (  92-> 116)
 407   9.989     124.1   0.023831   0.019641  -18.065936  -15.177476     0.07 (  88-> 118)    0.05 (  58-> 105)    0.03 (  84-> 106)
 408   9.995     124.1   0.007083   0.006502  -6.990334  -7.142177     0.05 ( 102-> 121)    0.03 ( 103-> 135)    0.02 ( 102-> 125)
 409   9.997     124.0   0.015402   0.013140  -11.975589  -10.959585     0.04 (  87-> 117)    0.04 ( 102-> 121)    0.02 (  75-> 111)

sTD-DFT done

Total run time:       95.444 sec

           *** ORCA-CIS/TD-DFT FINISHED WITHOUT ERROR ***


-------------------------------------------------------------------------------
                          DFT DISPERSION CORRECTION                            
                                                                               
                              DFTD3 V3.1  Rev 1                                
                              USING zero damping                               
-------------------------------------------------------------------------------
The omegaB97X-D3 functional is recognized. Fit by Chai et al.
Active option DFTDOPT                   ...         3   

molecular C6(AA) [au] = 77808.625708 


            DFT-D V3
 parameters
 s6 scaling factor         :     1.0000 
 rs6 scaling factor        :     1.2810 
 s8 scaling factor         :     1.0000 
 rs8 scaling factor        :     1.0940 
 Damping factor alpha6     :    14.0000 
 Damping factor alpha8     :    16.0000 
 ad hoc parameters k1-k3   :    16.0000     1.3333    -4.0000 

 Edisp/kcal,au: -21.414907071267  -0.034126823055 
 E6   /kcal   : -10.508785598 
 E8   /kcal   : -10.906121474 
 % E8         :  50.927708616 

-------------------------   ----------------
Dispersion correction           -0.034126823
-------------------------   ----------------


-------------------------   --------------------
FINAL SINGLE POINT ENERGY     -2874.978169834337
-------------------------   --------------------


                            ***************************************
                            *     ORCA property calculations      *
                            ***************************************

                                    ---------------------
                                    Active property flags
                                    ---------------------
   (+) Dipole Moment
   (+) Quadrupole Moment


------------------------------------------------------------------------------
                       ORCA ELECTRIC PROPERTIES CALCULATION
------------------------------------------------------------------------------

Dipole Moment Calculation                       ... on
Quadrupole Moment Calculation                   ... on
Polarizability Calculation                      ... off
GBWName                                         ... total_job2.gbw
Electron density file                           ... total_job2.scfp.tmp

-------------
DIPOLE MOMENT
-------------
                                X             Y             Z
Electronic contribution:     18.41432      -1.47273      -3.28220
Nuclear contribution   :    -18.72899       1.56946       3.39384
                        -----------------------------------------
Total Dipole Moment    :     -0.31467       0.09674       0.11164
                        -----------------------------------------
Magnitude (a.u.)       :      0.34762
Magnitude (Debye)      :      0.88359


------------------------
QUADRUPOLE MOMENT (A.U.)
------------------------

                XX           YY           ZZ           XY           XZ           YZ
  NUC     51096.87857   4209.11185   1155.95331   2137.27601    960.56070   1222.16415
  EL     -51261.32545  -4404.17152  -1359.67442  -2137.67933   -954.89506  -1208.89497
  TOT      -164.44687   -195.05967   -203.72111     -0.40332      5.66564     13.26917

--------------------------------------------------------------------------
[[20913,1],1]: A high-performance Open MPI point-to-point messaging module
was unable to find any relevant network interfaces:

Module: OpenFabrics (openib)
  Host: cx1-103-5-2

Another transport will be used instead, although this may result in
lower performance.
--------------------------------------------------------------------------

Timings for individual modules:

Sum of individual times         ...      328.002 sec (=   5.467 min)
GTO integral calculation        ...        9.062 sec (=   0.151 min)   2.8 %
SCF iterations                  ...      211.081 sec (=   3.518 min)  64.4 %
CIS module                      ...      107.859 sec (=   1.798 min)  32.9 %



                             ****ORCA TERMINATED NORMALLY****
TOTAL RUN TIME: 0 days 0 hours 19 minutes 28 seconds 497 msec
