   67
Geometry Step: 1904
    C     10.33293565      2.21214881      2.62415895      4.08153192
    C      9.07821796      2.00467889      2.10620290      4.11905920
    C      8.85362767      0.96042585      1.15211292      3.82807423
    C      9.96221982      0.12715362      0.75420560      3.82364119
    C     11.25467685      0.37908772      1.31908361      4.11798337
    C     11.42865969      1.39474781      2.22637702      4.08095809
    N      7.61096030      0.77166556      0.64243918      5.31041628
    C      7.44486972     -0.22272738     -0.26040460      3.84504711
    C      8.55270172     -1.07755159     -0.63259350      3.82357317
    N      9.79638105     -0.89006901     -0.12569856      5.31001328
    C      8.33042124     -2.15153994     -1.55273775      4.13177996
    C      7.07550730     -2.36674522     -2.06786452      4.07879714
    C      5.98802065     -1.52791702     -1.71420936      4.11598158
    C      6.13853885     -0.46147820     -0.84144151      3.98361994
    H      5.01694552     -1.71926311     -2.16364918      0.91474610
    H      6.90372510     -3.18247028     -2.76557471      0.91569292
    H      9.16535806     -2.78811069     -1.83276754      0.90336461
    H     12.41044187      1.58398427      2.65312866      0.91634063
    H      8.24236138      2.63054703      2.40920182      0.90677444
    H     10.50163345      3.00716422      3.34611014      0.91629512
    S      0.22348553      2.12818170      0.22673020      5.97159803
    C      1.25094895      0.76037565     -0.18871955      3.95060914
    C      0.48897725     -0.36729647     -0.41546866      4.17733123
    C     -0.92385252     -0.15162223     -0.26041380      3.95594251
    C     -1.21838938      1.15867198      0.08957993      4.13318416
    C      2.68963519      0.89712860     -0.25865531      3.95351349
    C      3.62489273     -0.07117215     -0.56428066      4.17264110
    C      4.98125901      0.40021591     -0.52726968      3.97003713
    C      5.05588474      1.74305959     -0.20046425      4.11548280
    S      3.47845485      2.43562730      0.06567159      5.97333275
    H      3.35391208     -1.09890835     -0.78185926      0.90304199
    H      0.91912096     -1.32668984     -0.68614497      0.90163206
    H      5.95290845      2.34433391     -0.13500659      0.88169050
    H     -2.20642808      1.56787430      0.26010579      0.87646218
    C     -8.25198756     -2.37436940     -0.71268467      4.08597375
    C     -9.61534003     -2.54982012     -0.48230829      4.07784309
    C    -10.24260665     -1.87060352      0.56366801      4.07883284
    C     -9.49709278     -1.02210094      1.38497991      4.07517831
    C     -8.13559162     -0.83803652      1.15260164      4.09418208
    C     -7.49727028     -1.50298443      0.09037102      3.97991520
    C     -6.03581514     -1.34884120     -0.16222756      3.84361120
    C     -5.36106602     -0.05471512     -0.02882900      3.85179930
    N     -4.03382074      0.05092316     -0.08255023      5.30155028
    C     -3.32331196     -1.09786938     -0.34227212      3.88407653
    C     -4.00049619     -2.34919869     -0.59633871      3.85238712
    N     -5.37119372     -2.45757194     -0.47614398      5.29947117
    C     -1.92361460     -1.19021346     -0.44907489      4.01613842
    S     -1.48341336     -2.83106756     -0.87407810      5.94497520
    C     -3.12842735     -3.38959638     -0.90609966      4.18420619
    C     -6.11307548      1.22154606      0.12974690      3.97853230
    C     -5.59362407      2.22985980      0.95978834      4.08857654
    C     -6.26310467      3.44293311      1.10854799      4.07759943
    C     -7.45421052      3.67505549      0.41817579      4.07905634
    C     -7.96643217      2.69103663     -0.43013857      4.07457322
    C     -7.30353560      1.47410970     -0.57564241      4.09432556
    H     -7.70101627      0.72246083     -1.25300239      0.91696604
    H     -8.88443149      2.87384008     -0.98283993      0.92095968
    H     -7.97650956      4.62123266      0.53369509      0.92174652
    H     -5.85510286      4.21003777      1.76211948      0.92182370
    H     -4.66400502      2.04706086      1.49358302      0.91542190
    H     -7.56026244     -0.18843880      1.80762227      0.91765368
    H     -9.97781055     -0.50394475      2.21084086      0.92108895
    H    -11.30568877     -2.00802237      0.74379779      0.92196254
    H    -10.19006408     -3.21943418     -1.11743173      0.92174299
    H     -7.75967998     -2.90469277     -1.52386032      0.91243992
    H     12.09228180     -0.24507290      1.01793837      0.90512466
    H     -3.38139388     -4.41731297     -1.13223825      0.88007597
