   57
Geometry Step: 2188
    C     -6.29012663     -0.66803052     -2.39389919      4.11349553
    C     -5.56183275     -0.49285888     -1.21988113      4.08049676
    C     -6.18179350      0.11409492     -0.11174300      4.03327192
    C     -7.55233147      0.48335977     -0.22055889      3.86523259
    C     -8.28733678      0.31272766     -1.40383393      4.16287587
    C     -7.63245303     -0.26087008     -2.49075678      4.06855684
    C     -5.77596155      0.42805785      1.24886813      4.05606538
    C     -6.93934997      0.92948391      1.90199461      3.86642590
    N     -7.98395517      0.98044707      0.99656368      5.17500286
    C     -6.95985054      1.27732834      3.26106921      4.16246163
    C     -5.78316121      1.09921104      3.98559971      4.07376135
    C     -4.61809248      0.62700150      3.36569589      4.12382457
    C     -4.57606572      0.30729290      1.99634667      3.97421015
    H     -3.70747189      0.52639592      3.94918902      0.90763170
    H     -8.92694031      1.28358970      1.20703962      0.78424089
    H     -5.76074769      1.34371716      5.04390535      0.91708717
    H     -4.53420445     -0.84104960     -1.16921330      0.91434265
    H     -9.33135808      0.60803257     -1.46481625      0.91766222
    H     -8.17005314     -0.41000240     -3.42327586      0.92109822
    H     -5.81457413     -1.13391055     -3.25240729      0.91868172
    S      1.53414328     -1.13866361     -0.13494867      6.04163421
    C      2.17961919     -0.52229874     -1.66889019      3.80487320
    N      1.30521138      0.23213136     -2.33204580      5.19296778
    N      0.10324555      0.36923041     -1.70172155      5.17428711
    C      0.03839787     -0.27601102     -0.54503164      3.84090166
    C     -1.12419938     -0.28826900      0.31262316      3.83519866
    N     -1.18478372     -0.94039249      1.46545567      5.18506531
    N     -2.38873710     -0.80136362      2.10277055      5.18719895
    C     -3.26808837     -0.06966558      1.43513993      3.81217076
    S     -2.61825171      0.57093805     -0.09054816      6.03251545
    C      5.70978400     -1.41678886     -2.62860285      4.14384932
    C      5.49145393     -0.63793233     -3.73606773      4.09745875
    S      3.88574822      0.03044317     -3.73689395      5.94627010
    C      3.50291118     -0.75748688     -2.20480356      4.01796962
    C      4.58542336     -1.50086000     -1.74714948      3.98724275
    C      4.66415713     -2.27161067     -0.45379197      4.12215720
    C      5.44218965     -1.48922147      0.62010524      4.12916744
    C      4.73054518     -0.19997170      1.04191095      4.13331424
    C      5.63701321      0.79673760      1.77067692      4.12908904
    C      6.81917582      1.30713918      0.93429514      4.11913834
    C      6.41560791      1.87034674     -0.42247317      4.26913341
    H      6.64736574     -1.92596750     -2.43317175      0.90242620
    H      7.27286808      2.31608484     -0.92204956      0.92034214
    H      6.02100835      1.08994492     -1.06981993      0.90844467
    H      5.65072150      2.63631309     -0.31605578      0.91434127
    H      3.66518371     -2.52153430     -0.08453309      0.92564259
    H      5.17847846     -3.22199263     -0.63653046      0.93001029
    H      6.43352464     -1.25329400      0.22264687      0.92405922
    H      5.60027588     -2.12989753      1.49340579      0.93293979
    H      4.30837825      0.28626209      0.15728432      0.92334219
    H      3.88076485     -0.45029602      1.68595170      0.93416863
    H      7.54387247      0.49982046      0.78707003      0.93274203
    H      7.33982560      2.08061286      1.50830939      0.93452660
    H      5.02707792      1.65097392      2.08224726      0.93271319
    H      6.02427019      0.34098057      2.68821486      0.93633669
    H     -7.86223776      1.65784803      3.73130977      0.91507976
    H      6.19541603     -0.43630765     -4.53317453      0.89485554
