   59
Geometry Step: 5904
    C     -7.69600522     -2.71399887     -0.81855050      4.11312819
    C     -6.91704704     -1.60766359     -0.48954203      4.08168220
    C     -7.52483066     -0.33991221     -0.41088790      4.03387749
    C     -8.91575694     -0.23852906     -0.69553058      3.86587080
    C     -9.70405437     -1.35271253     -1.02162541      4.16337577
    C     -9.07297514     -2.59266846     -1.07518144      4.06717687
    C     -7.06049241      1.01101341     -0.13379540      4.04855593
    C     -8.19665416      1.85857760     -0.29342185      3.86540567
    N     -9.29953808      1.08834436     -0.61015106      5.17436857
    C     -8.13639445      3.25369961     -0.15900494      4.16138449
    C     -6.89569979      3.81650158      0.13122099      4.07054543
    C     -5.76249917      3.01041770      0.30130659      4.13635365
    C     -5.81377418      1.60779327      0.19532276      3.99232986
    H     -4.81463341      3.48012465      0.54987482      0.91741202
    H    -10.23085600      1.44414472     -0.78759548      0.78389439
    H     -6.80285900      4.89361892      0.23599006      0.91691199
    H     -5.85558493     -1.73450235     -0.30381143      0.90523050
    H    -10.76533285     -1.24844735     -1.23057699      0.91756411
    H     -9.65058505     -3.47846227     -1.32539301      0.92094727
    H     -7.23095398     -3.69397039     -0.87901124      0.91829035
    C      1.12166529     -0.00959981      0.85235968      3.84378509
    N      0.76025498     -1.22066848      1.30549891      5.18007043
    O     -0.59897822     -1.25071225      1.30256330      6.05066260
    C     -1.08693187     -0.08304818      0.85690001      3.77340922
    C     -0.03868086      0.76195289      0.54888967      4.27607143
    C     -2.53120752      0.08725225      0.77673521      3.88365686
    N     -3.38590915     -0.88160707      1.13679528      5.16248145
    O     -4.63603554     -0.38949979      0.93261901      6.05694365
    C     -4.57759717      0.86071093      0.45048033      3.75645673
    C     -3.25061193      1.23483555      0.33547072      4.27694702
    H     -2.85248277      2.17051671     -0.02901942      0.88562121
    H     -0.09047252      1.77178584      0.16726285      0.88764874
    C      3.63346411     -0.37891013      1.01873134      4.15897126
    C      2.51918278      0.37748770      0.72059076      3.96782234
    S      2.98757155      1.96328227      0.12560920      5.98841124
    C      4.68417418      1.57436177      0.29087812      4.14354225
    C      4.87009773      0.30054378      0.77645022      3.97361034
    C      6.22243593     -0.31926716      1.01753595      4.12164161
    C      6.46691437     -1.54476426      0.12236740      4.13028995
    C      7.84603683     -2.19353585      0.33707145      4.13651646
    C      8.92398224     -1.73372181     -0.65126417      4.12996457
    C      9.25017927     -0.23947701     -0.57723215      4.12321071
    C     10.41035436      0.14170116     -1.48645110      4.26637192
    H      3.56992965     -1.39139140      1.40233996      0.89717260
    H     11.31448083     -0.39763643     -1.21175733      0.91645539
    H     10.18498359     -0.09529849     -2.52408614      0.91611244
    H     10.62090110      1.20693408     -1.42255468      0.91906377
    H      6.30553731     -0.62751215      2.06738797      0.92885366
    H      7.00149479      0.42996810      0.85260085      0.93286403
    H      5.68357964     -2.28088294      0.32852105      0.93226203
    H      6.34797028     -1.25943242     -0.92696477      0.92516115
    H      7.74534506     -3.27968256      0.24245937      0.93591366
    H      8.18532245     -2.00787953      1.36143375      0.93108025
    H      8.36670517      0.34247048     -0.85608400      0.92746409
    H      9.48893315      0.03265544      0.45605003      0.93105438
    H      8.60986646     -1.98147429     -1.67069568      0.93152875
    H      9.83759688     -2.30837022     -0.46436774      0.93442717
    H     -9.02179025      3.87003388     -0.28643475      0.91434669
    H      5.45816464      2.28441066      0.02847358      0.89782733
