
                                 *****************
                                 * O   R   C   A *
                                 *****************

           --- An Ab Initio, DFT and Semiempirical electronic structure package ---

                  #######################################################
                  #                        -***-                        #
                  #  Department of molecular theory and spectroscopy    #
                  #              Directorship: Frank Neese              #
                  # Max Planck Institute for Chemical Energy Conversion #
                  #                  D-45470 Muelheim/Ruhr              #
                  #                       Germany                       #
                  #                                                     #
                  #                  All rights reserved                #
                  #                        -***-                        #
                  #######################################################


                         Program Version 4.0.0 -  RELEASE  -


 With contributions from (in alphabetic order):
   Daniel Aravena         : Magnetic Properties
   Michael Atanasov       : Ab Initio Ligand Field Theory
   Ute Becker             : Parallelization
   Martin Brehm           : Molecular dynamics
   Dmytro Bykov           : SCF Hessian
   Vijay G. Chilkuri      : MRCI spin determinant printing
   Dipayan Datta          : RHF DLPNO-CCSD density
   Achintya Kumar Dutta   : EOM-CC, STEOM-CC
   Dmitry Ganyushin       : Spin-Orbit,Spin-Spin,Magnetic field MRCI
   Yang Guo               : DLPNO-NEVPT2, CIM, IAO-localization
   Andreas Hansen         : Spin unrestricted coupled pair/coupled cluster methods
   Lee Huntington         : MR-EOM, pCC
   Robert Izsak           : Overlap fitted RIJCOSX, COSX-SCS-MP3, EOM
   Christian Kollmar      : KDIIS, OOCD, Brueckner-CCSD(T), CCSD density
   Simone Kossmann        : Meta GGA functionals, TD-DFT gradient, OOMP2, MP2 Hessian
   Martin Krupicka        : AUTO-CI
   Dagmar Lenk            : GEPOL surface
   Dimitrios Liakos       : Extrapolation schemes; parallel MDCI
   Dimitrios Manganas     : ROCIS; embedding schemes
   Dimitrios Pantazis     : SARC Basis sets
   Taras Petrenko         : DFT Hessian,TD-DFT gradient, ASA, ECA, R-Raman, ABS, FL, XAS/XES, NRVS
   Peter Pinski           : DLPNO-MP2
   Christoph Reimann      : Effective Core Potentials
   Marius Retegan         : Local ZFS, SOC
   Christoph Riplinger    : Optimizer, TS searches, QM/MM, DLPNO-CCSD(T), (RO)-DLPNO pert. Triples
   Tobias Risthaus        : Range-separated hybrids, TD-DFT gradient, RPA, STAB
   Michael Roemelt        : Restricted open shell CIS
   Masaaki Saitow         : Open-shell DLPNO
   Barbara Sandhoefer     : DKH picture change effects
   Kantharuban Sivalingam : CASSCF convergence, NEVPT2, FIC-MRCI
   Georgi Stoychev        : AutoAux
   Boris Wezisla          : Elementary symmetry handling
   Frank Wennmohs         : Technical directorship


 We gratefully acknowledge several colleagues who have allowed us to
 interface, adapt or use parts of their codes:
   Stefan Grimme, W. Hujo, H. Kruse,             : VdW corrections, initial TS optimization,
                  C. Bannwarth                     DFT functionals, gCP, sTDA/sTD-DF
   Ed Valeev                                     : LibInt (2-el integral package), F12 methods
   Garnet Chan, S. Sharma, J. Yang, R. Olivares  : DMRG
   Ulf Ekstrom                                   : XCFun DFT Library
   Mihaly Kallay                                 : mrcc  (arbitrary order and MRCC methods)
   Jiri Pittner, Ondrej Demel                    : Mk-CCSD
   Frank Weinhold                                : gennbo (NPA and NBO analysis)
   Christopher J. Cramer and Donald G. Truhlar   : smd solvation model


 Your calculation uses the libint2 library for the computation of 2-el integrals
 For citations please refer to: http://libint.valeyev.net

 This ORCA versions uses:
   CBLAS   interface :  Fast vector & matrix operations
   LAPACKE interface :  Fast linear algebra routines
   SCALAPACK package :  Parallel linear algebra routines


Your calculation utilizes the atom-pairwise dispersion correction
with the zero-damping scheme (D30)
Cite in your paper:
S.Grimme, J.Antony, S.Ehrlich and H.Krieg, J.Chem.Phys., 132, (2010), 154104 
   

XCFun DFT library Copyright 2009-2010 Ulf Ekstrom and contributors.
See http://admol.org/xcfun for more information. This is free soft-
ware; see the source code for copying conditions. There is ABSOLUTELY
NO WARRANTY; not even for MERCHANTABILITY or FITNESS FOR A PARTICULAR
PURPOSE. For details see the documentation. Scientific users of this 
library should cite U. Ekstrom, L. Visscher, R. Bast, A. J. Thorvald-
sen and K. Ruud; J.Chem.Theor.Comp. 2010, DOI: 10.1021/ct100117s
XCFun Version 0.99 
Your calculation utilizes the basis: def2-TZVP
   F. Weigend and R. Ahlrichs, Phys. Chem. Chem. Phys. 7, 3297 (2005).

Your calculation utilizes the auxiliary basis: def2/J
   F. Weigend, Phys. Chem. Chem. Phys. 8, 1057 (2006).

================================================================================
                                        WARNINGS
                       Please study these warnings very carefully!
================================================================================

Warning: TCutStore was < 0. Adjusted to Thresh (uncritical)
INFO   : Checking CIS options ...

WARNING: CIS/ROCIS methods need fully converged wavefunctions
  ===> : Setting SCFConvForced true
         You can overwrite this default with %scf ConvForced false 


INFO   : the flag for use of LIBINT has been found!

Your calculation utilizes the atom-pairwise dispersion correction
with the zero-damping scheme (D30)
Cite in your paper:
S.Grimme, J.Antony, S.Ehrlich and H.Krieg, J.Chem.Phys., 132, (2010), 154104 
   

XCFun DFT library Copyright 2009-2010 Ulf Ekstrom and contributors.
See http://admol.org/xcfun for more information. This is free soft-
ware; see the source code for copying conditions. There is ABSOLUTELY
NO WARRANTY; not even for MERCHANTABILITY or FITNESS FOR A PARTICULAR
PURPOSE. For details see the documentation. Scientific users of this 
library should cite U. Ekstrom, L. Visscher, R. Bast, A. J. Thorvald-
sen and K. Ruud; J.Chem.Theor.Comp. 2010, DOI: 10.1021/ct100117s
XCFun Version 0.99 
Your calculation utilizes the basis: def2-TZVP
   F. Weigend and R. Ahlrichs, Phys. Chem. Chem. Phys. 7, 3297 (2005).

Your calculation utilizes the auxiliary basis: def2/J
   F. Weigend, Phys. Chem. Chem. Phys. 8, 1057 (2006).

================================================================================
                                        WARNINGS
                       Please study these warnings very carefully!
================================================================================

INFO   : Checking CIS options ...

INFO   : the flag for use of LIBINT has been found!

================================================================================
                                       INPUT FILE
================================================================================
NAME = total.inp
|  1> # 
|  2> !wB97X-D3 def2-TZVP def2/J RIJCOSX Grid5 FinalGrid6 TightSCF
|  3> %pal 
|  4>  nprocs 24
|  5> end
|  6> %tddft
|  7>   Mode sTDDFT
|  8>   nroots 2
|  9>   Ethresh 10.0
| 10>   maxcore 5000
| 11>   triplets true
| 12> end
| 13> * xyz 0 1 
| 14> C -5.73669769 2.29621523 -1.86854425
| 15> C -5.38360056 1.29917769 -0.96217383
| 16> C -6.21407621 0.17106720 -0.82838769
| 17> C -7.40821976 0.10960620 -1.60037622
| 18> C -7.76149745 1.10860647 -2.52035953
| 19> C -6.90376669 2.19890559 -2.64672374
| 20> C -6.20143139 -1.01782125 0.00824155
| 21> C -7.41046851 -1.71502161 -0.27541950
| 22> N -8.10571478 -1.03718884 -1.26136218
| 23> C -7.78912755 -2.88567150 0.39991096
| 24> C -6.93480798 -3.35129609 1.39798160
| 25> C -5.73222809 -2.69232943 1.68869416
| 26> C -5.32229169 -1.54006293 0.99300473
| 27> H -5.07818401 -3.10100668 2.45509376
| 28> H -9.00635593 -1.30978737 -1.63536112
| 29> H -7.19725372 -4.24675894 1.95465161
| 30> H -4.48672439 1.41052124 -0.35994343
| 31> H -8.67528199 1.03831501 -3.10440060
| 32> H -7.14567902 2.99281855 -3.34826280
| 33> H -5.09940797 3.16943536 -1.97675499
| 34> N 0.44649686 0.71310698 2.46199041
| 35> C -0.68726932 0.16215616 3.04539187
| 36> C -0.61684686 0.01286177 4.42160884
| 37> S 0.92002278 0.57836384 5.02206824
| 38> C 1.38282632 0.98922942 3.34997318
| 39> C -1.82493761 -0.20539430 2.21347163
| 40> S -3.31473118 -0.90614099 2.89349592
| 41> C -4.00230798 -0.96059439 1.27012962
| 42> C -3.06774089 -0.48080404 0.37030439
| 43> N -1.86915684 -0.06242037 0.89867291
| 44> H -1.38075396 -0.39242923 5.07341290
| 45> H -3.21677225 -0.45357118 -0.70678176
| 46> C 2.65761315 1.59183331 2.98645037
| 47> C 3.62008835 1.90621822 3.88757325
| 48> S 5.18847758 2.65768533 3.52376315
| 49> C 5.50931211 2.10188855 1.85657929
| 50> C 4.55438097 1.79317578 0.94376350
| 51> S 2.79453924 1.89371738 1.21495196
| 52> S 7.21364044 1.85721824 1.38581898
| 53> C 6.85153871 1.31237572 -0.27932497
| 54> S 5.10454078 1.18059508 -0.63859850
| 55> C 7.81752086 1.01897825 -1.18681767
| 56> S 9.56458289 1.14364584 -0.82405463
| 57> C 10.11179068 0.70505073 -2.46532211
| 58> C 9.15853093 0.39871893 -3.38066230
| 59> S 7.45632554 0.46613681 -2.84894899
| 60> S 11.87189565 0.62626174 -2.75826486
| 61> C 11.98715150 -0.69143515 -3.96242633
| 62> C 11.04490266 -0.99411663 -4.86726084
| 63> S 9.48353541 -0.14128682 -5.05174576
| 64> H 11.19253552 -1.82338677 -5.55664927
| 65> H 3.45325711 1.69697697 4.94449356
| 66> H -8.71767915 -3.39795328 0.16474519
| 67> H 12.90580539 -1.27298580 -3.91130965
| 68> *
| 69> $new_job
| 70> # 
| 71> !wB97X-D3 def2-TZVP def2/J RIJCOSX Grid5 FinalGrid6 TightSCF
| 72> %pal 
| 73>  nprocs 24
| 74> end
| 75> %elprop
| 76>    dipole     true
| 77>    quadrupole true
| 78> end
| 79> %tddft
| 80>   Mode sTDDFT
| 81>   nroots 2
| 82>   Ethresh 10.0
| 83>   maxcore 5000
| 84> end
| 85> * xyz 0 1 
| 86> C -5.73669769 2.29621523 -1.86854425
| 87> C -5.38360056 1.29917769 -0.96217383
| 88> C -6.21407621 0.17106720 -0.82838769
| 89> C -7.40821976 0.10960620 -1.60037622
| 90> C -7.76149745 1.10860647 -2.52035953
| 91> C -6.90376669 2.19890559 -2.64672374
| 92> C -6.20143139 -1.01782125 0.00824155
| 93> C -7.41046851 -1.71502161 -0.27541950
| 94> N -8.10571478 -1.03718884 -1.26136218
| 95> C -7.78912755 -2.88567150 0.39991096
| 96> C -6.93480798 -3.35129609 1.39798160
| 97> C -5.73222809 -2.69232943 1.68869416
| 98> C -5.32229169 -1.54006293 0.99300473
| 99> H -5.07818401 -3.10100668 2.45509376
|100> H -9.00635593 -1.30978737 -1.63536112
|101> H -7.19725372 -4.24675894 1.95465161
|102> H -4.48672439 1.41052124 -0.35994343
|103> H -8.67528199 1.03831501 -3.10440060
|104> H -7.14567902 2.99281855 -3.34826280
|105> H -5.09940797 3.16943536 -1.97675499
|106> N 0.44649686 0.71310698 2.46199041
|107> C -0.68726932 0.16215616 3.04539187
|108> C -0.61684686 0.01286177 4.42160884
|109> S 0.92002278 0.57836384 5.02206824
|110> C 1.38282632 0.98922942 3.34997318
|111> C -1.82493761 -0.20539430 2.21347163
|112> S -3.31473118 -0.90614099 2.89349592
|113> C -4.00230798 -0.96059439 1.27012962
|114> C -3.06774089 -0.48080404 0.37030439
|115> N -1.86915684 -0.06242037 0.89867291
|116> H -1.38075396 -0.39242923 5.07341290
|117> H -3.21677225 -0.45357118 -0.70678176
|118> C 2.65761315 1.59183331 2.98645037
|119> C 3.62008835 1.90621822 3.88757325
|120> S 5.18847758 2.65768533 3.52376315
|121> C 5.50931211 2.10188855 1.85657929
|122> C 4.55438097 1.79317578 0.94376350
|123> S 2.79453924 1.89371738 1.21495196
|124> S 7.21364044 1.85721824 1.38581898
|125> C 6.85153871 1.31237572 -0.27932497
|126> S 5.10454078 1.18059508 -0.63859850
|127> C 7.81752086 1.01897825 -1.18681767
|128> S 9.56458289 1.14364584 -0.82405463
|129> C 10.11179068 0.70505073 -2.46532211
|130> C 9.15853093 0.39871893 -3.38066230
|131> S 7.45632554 0.46613681 -2.84894899
|132> S 11.87189565 0.62626174 -2.75826486
|133> C 11.98715150 -0.69143515 -3.96242633
|134> C 11.04490266 -0.99411663 -4.86726084
|135> S 9.48353541 -0.14128682 -5.05174576
|136> H 11.19253552 -1.82338677 -5.55664927
|137> H 3.45325711 1.69697697 4.94449356
|138> H -8.71767915 -3.39795328 0.16474519
|139> H 12.90580539 -1.27298580 -3.91130965
|140> *
|141> 
|142>                          ****END OF INPUT****
================================================================================


                 $$$$$$$$$$$$$$$$$$$$$$$$$$$$$$$$$$$$$$$$$$$$$$ 
                 $ THERE ARE  2 JOBS TO BE PROCESSED THIS RUN $
                 $$$$$$$$$$$$$$$$$$$$$$$$$$$$$$$$$$$$$$$$$$$$$$ 




                 $$$$$$$$$$$$$$$$  JOB NUMBER  1 $$$$$$$$$$$$$$


                       ****************************
                       * Single Point Calculation *
                       ****************************

---------------------------------
CARTESIAN COORDINATES (ANGSTROEM)
---------------------------------
  C     -5.736698    2.296215   -1.868544
  C     -5.383601    1.299178   -0.962174
  C     -6.214076    0.171067   -0.828388
  C     -7.408220    0.109606   -1.600376
  C     -7.761497    1.108606   -2.520360
  C     -6.903767    2.198906   -2.646724
  C     -6.201431   -1.017821    0.008242
  C     -7.410469   -1.715022   -0.275419
  N     -8.105715   -1.037189   -1.261362
  C     -7.789128   -2.885671    0.399911
  C     -6.934808   -3.351296    1.397982
  C     -5.732228   -2.692329    1.688694
  C     -5.322292   -1.540063    0.993005
  H     -5.078184   -3.101007    2.455094
  H     -9.006356   -1.309787   -1.635361
  H     -7.197254   -4.246759    1.954652
  H     -4.486724    1.410521   -0.359943
  H     -8.675282    1.038315   -3.104401
  H     -7.145679    2.992819   -3.348263
  H     -5.099408    3.169435   -1.976755
  N      0.446497    0.713107    2.461990
  C     -0.687269    0.162156    3.045392
  C     -0.616847    0.012862    4.421609
  S      0.920023    0.578364    5.022068
  C      1.382826    0.989229    3.349973
  C     -1.824938   -0.205394    2.213472
  S     -3.314731   -0.906141    2.893496
  C     -4.002308   -0.960594    1.270130
  C     -3.067741   -0.480804    0.370304
  N     -1.869157   -0.062420    0.898673
  H     -1.380754   -0.392429    5.073413
  H     -3.216772   -0.453571   -0.706782
  C      2.657613    1.591833    2.986450
  C      3.620088    1.906218    3.887573
  S      5.188478    2.657685    3.523763
  C      5.509312    2.101889    1.856579
  C      4.554381    1.793176    0.943763
  S      2.794539    1.893717    1.214952
  S      7.213640    1.857218    1.385819
  C      6.851539    1.312376   -0.279325
  S      5.104541    1.180595   -0.638598
  C      7.817521    1.018978   -1.186818
  S      9.564583    1.143646   -0.824055
  C     10.111791    0.705051   -2.465322
  C      9.158531    0.398719   -3.380662
  S      7.456326    0.466137   -2.848949
  S     11.871896    0.626262   -2.758265
  C     11.987151   -0.691435   -3.962426
  C     11.044903   -0.994117   -4.867261
  S      9.483535   -0.141287   -5.051746
  H     11.192536   -1.823387   -5.556649
  H      3.453257    1.696977    4.944494
  H     -8.717679   -3.397953    0.164745
  H     12.905805   -1.272986   -3.911310

----------------------------
CARTESIAN COORDINATES (A.U.)
----------------------------
  NO LB      ZA    FRAG     MASS         X           Y           Z
   0 C     6.0000    0    12.011  -10.840788    4.339218   -3.531037
   1 C     6.0000    0    12.011  -10.173531    2.455090   -1.818245
   2 C     6.0000    0    12.011  -11.742902    0.323270   -1.565426
   3 C     6.0000    0    12.011  -13.999506    0.207126   -3.024273
   4 C     6.0000    0    12.011  -14.667105    2.094963   -4.762789
   5 C     6.0000    0    12.011  -13.046228    4.155329   -5.001583
   6 C     6.0000    0    12.011  -11.719007   -1.923403    0.015574
   7 C     6.0000    0    12.011  -14.003756   -3.240921   -0.520467
   8 N     7.0000    0    14.007  -15.317581   -1.960003   -2.383629
   9 C     6.0000    0    12.011  -14.719318   -5.453129    0.755722
  10 C     6.0000    0    12.011  -13.104888   -6.333032    2.641802
  11 C     6.0000    0    12.011  -10.832341   -5.087765    3.191169
  12 C     6.0000    0    12.011  -10.057674   -2.910297    1.876507
  13 H     1.0000    0     1.008   -9.596377   -5.860053    4.639455
  14 H     1.0000    0     1.008  -17.019546   -2.475139   -3.090385
  15 H     1.0000    0     1.008  -13.600838   -8.025211    3.693756
  16 H     1.0000    0     1.008   -8.478680    2.665499   -0.680195
  17 H     1.0000    0     1.008  -16.393907    1.962131   -5.866467
  18 H     1.0000    0     1.008  -13.503376    5.655607   -6.327300
  19 H     1.0000    0     1.008   -9.636485    5.989365   -3.735526
  20 N     7.0000    0    14.007    0.843757    1.347577    4.652488
  21 C     6.0000    0    12.011   -1.298751    0.306431    5.754957
  22 C     6.0000    0    12.011   -1.165672    0.024305    8.355630
  23 S    16.0000    0    32.060    1.738591    1.092949    9.490334
  24 C     6.0000    0    12.011    2.613163    1.869373    6.330532
  25 C     6.0000    0    12.011   -3.448632   -0.388139    4.182855
  26 S    16.0000    0    32.060   -6.263934   -1.712358    5.467915
  27 C     6.0000    0    12.011   -7.563266   -1.815260    2.400197
  28 C     6.0000    0    12.011   -5.797190   -0.908588    0.699774
  29 N     7.0000    0    14.007   -3.532195   -0.117957    1.698246
  30 H     1.0000    0     1.008   -2.609247   -0.741584    9.587361
  31 H     1.0000    0     1.008   -6.078819   -0.857125   -1.335624
  32 C     6.0000    0    12.011    5.022161    3.008129    5.643573
  33 C     6.0000    0    12.011    6.840976    3.602230    7.346449
  34 S    16.0000    0    32.060    9.804802    5.022297    6.658947
  35 C     6.0000    0    12.011   10.411091    3.971994    3.508426
  36 C     6.0000    0    12.011    8.606533    3.388611    1.783455
  37 S    16.0000    0    32.060    5.280914    3.578607    2.295926
  38 S    16.0000    0    32.060   13.631805    3.509634    2.618818
  39 C     6.0000    0    12.011   12.947532    2.480031   -0.527848
  40 S    16.0000    0    32.060    9.646184    2.231001   -1.206776
  41 C     6.0000    0    12.011   14.772973    1.925590   -2.242760
  42 S    16.0000    0    32.060   18.074442    2.161177   -1.557238
  43 C     6.0000    0    12.011   19.108515    1.332353   -4.658784
  44 C     6.0000    0    12.011   17.307115    0.753470   -6.388526
  45 S    16.0000    0    32.060   14.090413    0.880871   -5.383733
  46 S    16.0000    0    32.060   22.434631    1.183463   -5.212365
  47 C     6.0000    0    12.011   22.652433   -1.306623   -7.487901
  48 C     6.0000    0    12.011   20.871841   -1.878608   -9.197790
  49 S    16.0000    0    32.060   17.921285   -0.266993   -9.546416
  50 H     1.0000    0     1.008   21.150827   -3.445702  -10.500545
  51 H     1.0000    0     1.008    6.525710    3.206822    9.343739
  52 H     1.0000    0     1.008  -16.474026   -6.421201    0.311323
  53 H     1.0000    0     1.008   24.388438   -2.405595   -7.391304

--------------------------------
INTERNAL COORDINATES (ANGSTROEM)
--------------------------------
 C      0   0   0     0.000000000000     0.00000000     0.00000000
 C      1   0   0     1.392935309925     0.00000000     0.00000000
 C      2   1   0     1.407203543965   119.08336184     0.00000000
 C      3   2   1     1.423278807184   118.56794157   358.23860974
 C      4   3   2     1.403273300676   122.41704669     2.24786736
 C      5   4   3     1.392990359368   117.49483192   358.98358887
 C      3   2   1     1.453810208810   134.84265079   182.06721296
 C      7   3   2     1.424191943106   106.16063615   174.82185945
 N      8   7   3     1.383801867422   109.18573558     2.26427129
 C      8   7   3     1.403522377354   122.78679908   183.55059534
 C     10   8   7     1.393848337850   117.24596549     0.90802799
 C     11  10   8     1.401766472479   121.15068358   358.47027750
 C     12  11  10     1.407035792750   122.16670518   359.72768134
 H     12  11  10     1.087271401321   119.04896559   181.69854033
 H      9   8   7     1.012590562247   125.32126180   181.24055251
 H     11  10   8     1.086560160418   119.61122572   179.16526465
 H      2   1   3     1.086032092125   119.78716914   181.07193951
 H      5   4   3     1.086759884399   121.19580126   179.59532416
 H      6   5   4     1.086727388156   119.55764583   180.09376196
 H      1   2   3     1.086444267741   119.43388362   180.02744466
 N     17   2   1     5.725938276723   166.48251589   225.07992883
 C     21  17   2     1.389003175123    63.38892158   282.80362377
 C     22  21  17     1.386081269722   114.72590597   205.40319308
 S     23  22  21     1.744222569679   110.58840118     0.00000000
 C     21  17   2     1.319647626964   156.55461337   197.87266059
 C     22  21  17     1.456527982718   119.85123958    25.35554958
 S     26  22  21     1.781281516142   122.30927044   180.41460546
 C     13  12  11     1.467971044732   119.46570700   184.95449492
 C     28  13  12     1.383220832047   128.43654533   136.75348144
 N     26  22  21     1.323288539614   124.49527931     0.50058293
 H     23  22  21     1.082895832822   127.02017143   180.02775902
 H     29  28  13     1.087688627066   124.07639094     1.52304139
 C     25  21  17     1.456146195811   122.66759230   255.19055726
 C     33  25  21     1.355440455022   123.48095246   178.66803936
 S     34  33  25     1.776768241233   126.07010092   180.72829911
 C     35  34  33     1.786434123986   102.59379957   331.52978807
 C     36  35  34     1.356624385368   124.91243670    28.30563375
 S     37  36  35     1.783450226055   125.41131568     0.62753332
 S     36  35  34     1.784996886974   117.40329423   211.53130211
 C     39  36  35     1.789043154508    95.39137333   179.17968280
 S     37  36  35     1.783760193971   117.25389061   182.94908871
 C     40  39  36     1.357478025632   122.95709548   177.05245829
 S     42  40  39     1.788676820405   122.98358287   359.96746549
 C     43  42  40     1.784813989428    95.49915051   182.94978458
 C     44  43  42     1.356610108355   117.42032067   358.02352530
 S     45  44  43     1.784591663188   117.43070377     0.00000000
 S     44  43  42     1.786055056582   117.63271945   180.87974548
 C     47  44  43     1.788746446735   101.91194492   146.64745565
 C     48  47  44     1.340960269845   125.11694155    30.36637436
 S     45  44  43     1.785988256495   124.87032836   183.08486310
 H     49  48  47     1.088458007396   120.26737770   180.78225980
 H     34  33  25     1.090272949785   119.42689419     0.53128722
 H     10   8   7     1.086252104883   121.31955057   179.94564181
 H     48  47  44     1.088457184781   114.60476222   211.11167558

---------------------------
INTERNAL COORDINATES (A.U.)
---------------------------
 C      0   0   0     0.000000000000     0.00000000     0.00000000
 C      1   0   0     2.632266258026     0.00000000     0.00000000
 C      2   1   0     2.659229312777   119.08336184     0.00000000
 C      3   2   1     2.689607157792   118.56794157   358.23860974
 C      4   3   2     2.651802229322   122.41704669     2.24786736
 C      5   4   3     2.632370286398   117.49483192   358.98358887
 C      3   2   1     2.747303145349   134.84265079   182.06721296
 C      7   3   2     2.691332734608   106.16063615   174.82185945
 N      8   7   3     2.615006553036   109.18573558     2.26427129
 C      8   7   3     2.652272916030   122.78679908   183.55059534
 C     10   8   7     2.633991630758   117.24596549     0.90802799
 C     11  10   8     2.648954736698   121.15068358   358.47027750
 C     12  11  10     2.658912308923   122.16670518   359.72768134
 H     12  11  10     2.054645181742   119.04896559   181.69854033
 H      9   8   7     1.913518848441   125.32126180   181.24055251
 H     11  10   8     2.053301131220   119.61122572   179.16526465
 H      2   1   3     2.052303226765   119.78716914   181.07193951
 H      5   4   3     2.053678554846   121.19580126   179.59532416
 H      6   5   4     2.053617145846   119.55764583   180.09376196
 H      1   2   3     2.053082125798   119.43388362   180.02744466
 N     17   2   1    10.820455202743   166.48251589   225.07992883
 C     21  17   2     2.624835600129    63.38892158   282.80362377
 C     22  21  17     2.619313999132   114.72590597   205.40319308
 S     23  22  21     3.296102973297   110.58840118     0.00000000
 C     21  17   2     2.493772608241   156.55461337   197.87266059
 C     22  21  17     2.752438993729   119.85123958    25.35554958
 S     26  22  21     3.366134232924   122.30927044   180.41460546
 C     13  12  11     2.774063247070   119.46570700   184.95449492
 C     28  13  12     2.613908555303   128.43654533   136.75348144
 N     26  22  21     2.500652936028   124.49527931     0.50058293
 H     23  22  21     2.046376555599   127.02017143   180.02775902
 H     29  28  13     2.055433624136   124.07639094     1.52304139
 C     25  21  17     2.751717521034   122.66759230   255.19055726
 C     33  25  21     2.561411250829   123.48095246   178.66803936
 S     34  33  25     3.357605379379   126.07010092   180.72829911
 C     35  34  33     3.375871250626   102.59379957   331.52978807
 C     36  35  34     2.563648554945   124.91243670    28.30563375
 S     37  36  35     3.370232500725   125.41131568     0.62753332
 S     36  35  34     3.373155266283   117.40329423   211.53130211
 C     39  36  35     3.380801603786    95.39137333   179.17968280
 S     37  36  35     3.370818255196   117.25389061   182.94908871
 C     40  39  36     2.565261701261   122.95709548   177.05245829
 S     42  40  39     3.380109332659   122.98358287   359.96746549
 C     43  42  40     3.372809640010    95.49915051   182.94978458
 C     44  43  42     2.563621575300   117.42032067   358.02352530
 S     45  44  43     3.372389504304   117.43070377     0.00000000
 S     44  43  42     3.375154917045   117.63271945   180.87974548
 C     47  44  43     3.380240907354   101.91194492   146.64745565
 C     48  47  44     2.534047666477   125.11694155    30.36637436
 S     45  44  43     3.375028683175   124.87032836   183.08486310
 H     49  48  47     2.056887542253   120.26737770   180.78225980
 H     34  33  25     2.060317286315   119.42689419     0.53128722
 H     10   8   7     2.052718990624   121.31955057   179.94564181
 H     48  47  44     2.056885987735   114.60476222   211.11167558

---------------------
BASIS SET INFORMATION
---------------------
There are 4 groups of distinct atoms

 Group   1 Type C   : 11s6p2d1f contracted to 5s3p2d1f pattern {62111/411/11/1}
 Group   2 Type N   : 11s6p2d1f contracted to 5s3p2d1f pattern {62111/411/11/1}
 Group   3 Type H   : 5s1p contracted to 3s1p pattern {311/1}
 Group   4 Type S   : 14s9p3d1f contracted to 5s5p2d1f pattern {73211/51111/21/1}

Atom   0C    basis set group =>   1
Atom   1C    basis set group =>   1
Atom   2C    basis set group =>   1
Atom   3C    basis set group =>   1
Atom   4C    basis set group =>   1
Atom   5C    basis set group =>   1
Atom   6C    basis set group =>   1
Atom   7C    basis set group =>   1
Atom   8N    basis set group =>   2
Atom   9C    basis set group =>   1
Atom  10C    basis set group =>   1
Atom  11C    basis set group =>   1
Atom  12C    basis set group =>   1
Atom  13H    basis set group =>   3
Atom  14H    basis set group =>   3
Atom  15H    basis set group =>   3
Atom  16H    basis set group =>   3
Atom  17H    basis set group =>   3
Atom  18H    basis set group =>   3
Atom  19H    basis set group =>   3
Atom  20N    basis set group =>   2
Atom  21C    basis set group =>   1
Atom  22C    basis set group =>   1
Atom  23S    basis set group =>   4
Atom  24C    basis set group =>   1
Atom  25C    basis set group =>   1
Atom  26S    basis set group =>   4
Atom  27C    basis set group =>   1
Atom  28C    basis set group =>   1
Atom  29N    basis set group =>   2
Atom  30H    basis set group =>   3
Atom  31H    basis set group =>   3
Atom  32C    basis set group =>   1
Atom  33C    basis set group =>   1
Atom  34S    basis set group =>   4
Atom  35C    basis set group =>   1
Atom  36C    basis set group =>   1
Atom  37S    basis set group =>   4
Atom  38S    basis set group =>   4
Atom  39C    basis set group =>   1
Atom  40S    basis set group =>   4
Atom  41C    basis set group =>   1
Atom  42S    basis set group =>   4
Atom  43C    basis set group =>   1
Atom  44C    basis set group =>   1
Atom  45S    basis set group =>   4
Atom  46S    basis set group =>   4
Atom  47C    basis set group =>   1
Atom  48C    basis set group =>   1
Atom  49S    basis set group =>   4
Atom  50H    basis set group =>   3
Atom  51H    basis set group =>   3
Atom  52H    basis set group =>   3
Atom  53H    basis set group =>   3
-------------------------------
AUXILIARY BASIS SET INFORMATION
-------------------------------
There are 4 groups of distinct atoms

 Group   1 Type C   : 12s5p4d2f1g contracted to 6s4p3d1f1g pattern {711111/2111/211/2/1}
 Group   2 Type N   : 12s5p4d2f1g contracted to 6s4p3d1f1g pattern {711111/2111/211/2/1}
 Group   3 Type H   : 5s2p1d contracted to 3s1p1d pattern {311/2/1}
 Group   4 Type S   : 14s5p5d2f1g contracted to 8s4p3d1f1g pattern {71111111/2111/311/2/1}

Atom   0C    basis set group =>   1
Atom   1C    basis set group =>   1
Atom   2C    basis set group =>   1
Atom   3C    basis set group =>   1
Atom   4C    basis set group =>   1
Atom   5C    basis set group =>   1
Atom   6C    basis set group =>   1
Atom   7C    basis set group =>   1
Atom   8N    basis set group =>   2
Atom   9C    basis set group =>   1
Atom  10C    basis set group =>   1
Atom  11C    basis set group =>   1
Atom  12C    basis set group =>   1
Atom  13H    basis set group =>   3
Atom  14H    basis set group =>   3
Atom  15H    basis set group =>   3
Atom  16H    basis set group =>   3
Atom  17H    basis set group =>   3
Atom  18H    basis set group =>   3
Atom  19H    basis set group =>   3
Atom  20N    basis set group =>   2
Atom  21C    basis set group =>   1
Atom  22C    basis set group =>   1
Atom  23S    basis set group =>   4
Atom  24C    basis set group =>   1
Atom  25C    basis set group =>   1
Atom  26S    basis set group =>   4
Atom  27C    basis set group =>   1
Atom  28C    basis set group =>   1
Atom  29N    basis set group =>   2
Atom  30H    basis set group =>   3
Atom  31H    basis set group =>   3
Atom  32C    basis set group =>   1
Atom  33C    basis set group =>   1
Atom  34S    basis set group =>   4
Atom  35C    basis set group =>   1
Atom  36C    basis set group =>   1
Atom  37S    basis set group =>   4
Atom  38S    basis set group =>   4
Atom  39C    basis set group =>   1
Atom  40S    basis set group =>   4
Atom  41C    basis set group =>   1
Atom  42S    basis set group =>   4
Atom  43C    basis set group =>   1
Atom  44C    basis set group =>   1
Atom  45S    basis set group =>   4
Atom  46S    basis set group =>   4
Atom  47C    basis set group =>   1
Atom  48C    basis set group =>   1
Atom  49S    basis set group =>   4
Atom  50H    basis set group =>   3
Atom  51H    basis set group =>   3
Atom  52H    basis set group =>   3
Atom  53H    basis set group =>   3
-------------------------
ECP PARAMETER INFORMATION
-------------------------



--------------------------------------------------------------------------
[[44398,1],0]: A high-performance Open MPI point-to-point messaging module
was unable to find any relevant network interfaces:

Module: OpenFabrics (openib)
  Host: cx1-136-17-1

Another transport will be used instead, although this may result in
lower performance.
--------------------------------------------------------------------------


           ************************************************************
           *        Program running with 24 parallel MPI-processes    *
           *              working on a common directory               *
           ************************************************************
------------------------------------------------------------------------------
                           ORCA GTO INTEGRAL CALCULATION
                           -- RI-GTO INTEGRALS CHOSEN --
------------------------------------------------------------------------------

                         BASIS SET STATISTICS AND STARTUP INFO

Gaussian basis set:
 # of primitive gaussian shells          ...  968
 # of primitive gaussian functions       ... 2160
 # of contracted shells                  ...  523
 # of contracted basis functions         ... 1409
 Highest angular momentum                ...    3
 Maximum contraction depth               ...    7
Auxiliary gaussian basis set:
 # of primitive gaussian shells          ... 1118
 # of primitive gaussian functions       ... 3148
 # of contracted shells                  ...  700
 # of contracted aux-basis functions     ... 2172
 Highest angular momentum                ...    4
 Maximum contraction depth               ...    7
Ratio of auxiliary to basis functions    ...  1.54
Integral package used                  ... LIBINT
 One Electron integrals                  
   ECP integrals                         ... done
 Ordering auxiliary basis shells         ... done
 Integral threshhold             Thresh  ...  2.500e-11
 Primitive cut-off               TCut    ...  2.500e-12
 Pre-screening matrix                    ... done
 Shell pair data                         ... 
 Ordering of the shell pairs             ... done (   0.018 sec) 53105 of 137026 pairs
 Determination of significant pairs      ... done (   0.000 sec)
 Creation of shell pair data             ... done (   0.015 sec)
 Storage of shell pair data              ... done (   1.264 sec)
 Shell pair data done in (   1.298 sec)
 Computing two index integrals           ... done
 Cholesky decomposition of the V-matrix  ... done


Timings:
 Total evaluation time                   ...  17.356 sec (  0.289 min)
 One electron matrix time                ...   4.045 sec (  0.067 min) = 23.3%
 Schwartz matrix evaluation time         ...   4.679 sec (  0.078 min) = 27.0%
 Two index repulsion integral time       ...   3.525 sec (  0.059 min) = 20.3%
 Cholesky decomposition of V             ...   3.758 sec (  0.063 min) = 21.6%
 Three index repulsion integral time     ...   0.000 sec (  0.000 min) =  0.0%

--------------------------------------------------------------------------
[[44536,1],6]: A high-performance Open MPI point-to-point messaging module
was unable to find any relevant network interfaces:

Module: OpenFabrics (openib)
  Host: cx1-136-17-1

Another transport will be used instead, although this may result in
lower performance.
--------------------------------------------------------------------------


           ************************************************************
           *        Program running with 24 parallel MPI-processes    *
           *              working on a common directory               *
           ************************************************************
-------------------------------------------------------------------------------
                                 ORCA SCF
-------------------------------------------------------------------------------

------------
SCF SETTINGS
------------
Hamiltonian:
 Density Functional     Method          .... DFT(GTOs)
 Exchange Functional    Exchange        .... WB97X-D3
 Correlation Functional Correlation     .... WB97X-D3
 Gradients option       PostSCFGGA      .... off
 Hybrid DFT is turned on
   Fraction HF Exchange ScalHFX         ....  0.195728
   Scaling of DF-GGA-X  ScalDFX         ....  0.000000
   Scaling of DF-GGA-C  ScalDFC         ....  1.000000
   Scaling of DF-LDA-C  ScalLDAC        ....  1.000000
   Perturbative correction              ....  0.000000
 Long-range corrected/Screened/Range-Separated Hybrid DFT is turned on
   Amount of maximum screened exact exchange              ....  0.804272
   Range separation parameter mu (erf(mu*r12)/r12)        ....  0.250000
 RI-approximation to the Coulomb term is turned on
   Number of auxiliary basis functions  .... 2172
   RIJ-COSX (HFX calculated with COS-X)).... on


General Settings:
 Integral files         IntName         .... total
 Hartree-Fock type      HFTyp           .... RHF
 Total Charge           Charge          ....    0
 Multiplicity           Mult            ....    1
 Number of Electrons    NEL             ....  362
 Basis Dimension        Dim             .... 1409
 Nuclear Repulsion      ENuc            ....   5833.7714529869 Eh

Convergence Acceleration:
 DIIS                   CNVDIIS         .... on
   Start iteration      DIISMaxIt       ....    12
   Startup error        DIISStart       ....  0.200000
   # of expansion vecs  DIISMaxEq       ....     5
   Bias factor          DIISBfac        ....   1.050
   Max. coefficient     DIISMaxC        ....  10.000
 Newton-Raphson         CNVNR           .... off
 SOSCF                  CNVSOSCF        .... on
   Start iteration      SOSCFMaxIt      ....   150
   Startup grad/error   SOSCFStart      ....  0.003300
 Level Shifting         CNVShift        .... on
   Level shift para.    LevelShift      ....    0.2500
   Turn off err/grad.   ShiftErr        ....    0.0010
 Zerner damping         CNVZerner       .... off
 Static damping         CNVDamp         .... on
   Fraction old density DampFac         ....    0.7000
   Max. Damping (<1)    DampMax         ....    0.9800
   Min. Damping (>=0)   DampMin         ....    0.0000
   Turn off err/grad.   DampErr         ....    0.1000
 Fernandez-Rico         CNVRico         .... off

SCF Procedure:
 Maximum # iterations   MaxIter         ....   125
 SCF integral mode      SCFMode         .... Direct
   Integral package                     .... LIBINT
 Reset frequeny         DirectResetFreq ....    20
 Integral Threshold     Thresh          ....  2.500e-11 Eh
 Primitive CutOff       TCut            ....  2.500e-12 Eh

Convergence Tolerance:
 Convergence Check Mode ConvCheckMode   .... Total+1el-Energy
 Convergence forced     ConvForced      .... 1
 Energy Change          TolE            ....  1.000e-08 Eh
 1-El. energy change                    ....  1.000e-05 Eh
 Orbital Gradient       TolG            ....  1.000e-05
 Orbital Rotation angle TolX            ....  1.000e-05
 DIIS Error             TolErr          ....  5.000e-07


Diagonalization of the overlap matrix:
Smallest eigenvalue                        ... 6.208e-06
Time for diagonalization                   ...    0.688 sec
Threshold for overlap eigenvalues          ... 1.000e-08
Number of eigenvalues below threshold      ... 0
Time for construction of square roots      ...    1.999 sec
Total time needed                          ...    2.701 sec

-------------------
DFT GRID GENERATION
-------------------

General Integration Accuracy     IntAcc      ...  5.010
Radial Grid Type                 RadialGrid  ... Gauss-Chebyshev
Angular Grid (max. acc.)         AngularGrid ... Lebedev-434
Angular grid pruning method      GridPruning ... 3 (G Style)
Weight generation scheme         WeightScheme... Becke
Basis function cutoff            BFCut       ...    1.0000e-11
Integration weight cutoff        WCut        ...    1.0000e-14
Grids for H and He will be reduced by one unit

# of grid points (after initial pruning)     ... 535710 (   0.0 sec)
# of grid points (after weights+screening)   ... 475004 (   2.6 sec)
nearest neighbour list constructed           ...    0.0 sec
Grid point re-assignment to atoms done       ...    0.2 sec
Grid point division into batches done        ...    5.5 sec
Reduced shell lists constructed in    6.5 sec

Total number of grid points                  ...   475004
Total number of batches                      ...     7449
Average number of points per batch           ...       63
Average number of grid points per atom       ...     8796
Average number of shells per batch           ...   144.32 (27.59%)
Average number of basis functions per batch  ...   378.06 (26.83%)
Average number of large shells per batch     ...   100.17 (69.41%)
Average number of large basis fcns per batch ...   261.07 (69.05%)
Maximum spatial batch extension              ...  13.10, 17.10, 12.03 au
Average spatial batch extension              ...   0.05,  0.06,  0.05 au

Time for grid setup =   15.792 sec

------------------------------
INITIAL GUESS: MODEL POTENTIAL
------------------------------
Loading Hartree-Fock densities                     ... done
Calculating cut-offs                               ... done
Setting up the integral package                    ... done
Initializing the effective Hamiltonian             ... done
Starting the Coulomb interaction                   ... done (   0.8 sec)
Reading the grid                                   ... done
Mapping shells                                     ... done
Starting the XC term evaluation                    ... done (   2.6 sec)
  promolecular density results
     # of electrons  =    361.993693746
     EX              =   -415.662113493
     EC              =    -13.136873395
     EX+EC           =   -428.798986888
Transforming the Hamiltonian                       ... done (   0.4 sec)
Diagonalizing the Hamiltonian                      ... done (   0.7 sec)
Back transforming the eigenvectors                 ... done (   0.2 sec)
Now organizing SCF variables                       ... done
                      ------------------
                      INITIAL GUESS DONE (  20.9 sec)
                      ------------------
--------------------
COSX GRID GENERATION
--------------------

General Integration Accuracy     IntAcc      ...  3.340
Radial Grid Type                 RadialGrid  ... Gauss-Chebyshev
Angular Grid (max. acc.)         AngularGrid ... Lebedev-50
Angular grid pruning method      GridPruning ... 3 (G Style)
Weight generation scheme         WeightScheme... Becke
Basis function cutoff            BFCut       ...    1.0000e-11
Integration weight cutoff        WCut        ...    1.0000e-14
Grids for H and He will be reduced by one unit

# of grid points (after initial pruning)     ...  29158 (   0.0 sec)
# of grid points (after weights+screening)   ...  26851 (   0.2 sec)
nearest neighbour list constructed           ...    0.0 sec
Grid point re-assignment to atoms done       ...    0.0 sec
Grid point division into batches done        ...    0.0 sec
Reduced shell lists constructed in    0.1 sec

Total number of grid points                  ...    26851
Total number of batches                      ...      445
Average number of points per batch           ...       60
Average number of grid points per atom       ...      497
Average number of shells per batch           ...   158.00 (30.21%)
Average number of basis functions per batch  ...   416.30 (29.55%)
Average number of large shells per batch     ...   110.90 (70.19%)
Average number of large basis fcns per batch ...   293.30 (70.45%)
Maximum spatial batch extension              ...   9.67,  8.96, 12.26 au
Average spatial batch extension              ...   0.15,  0.14,  0.17 au

Overlap Fitting                  UseSFitting ... on
Constructing numerical overlap ... done (      0.2 sec)
Inverting numerical overlap    ... done (      0.3 sec)
Obtaining analytic overlap     ... done (      0.0 sec)
Final contraction and storage  ... done (      2.2 sec)


General Integration Accuracy     IntAcc      ...  3.670
Radial Grid Type                 RadialGrid  ... Gauss-Chebyshev
Angular Grid (max. acc.)         AngularGrid ... Lebedev-50
Angular grid pruning method      GridPruning ... 3 (G Style)
Weight generation scheme         WeightScheme... Becke
Basis function cutoff            BFCut       ...    1.0000e-11
Integration weight cutoff        WCut        ...    1.0000e-14
Grids for H and He will be reduced by one unit

# of grid points (after initial pruning)     ...  36254 (   0.0 sec)
# of grid points (after weights+screening)   ...  33312 (   0.2 sec)
nearest neighbour list constructed           ...    0.0 sec
Grid point re-assignment to atoms done       ...    0.0 sec
Grid point division into batches done        ...    0.0 sec
Reduced shell lists constructed in    0.1 sec

Total number of grid points                  ...    33312
Total number of batches                      ...      548
Average number of points per batch           ...       60
Average number of grid points per atom       ...      617
Average number of shells per batch           ...   155.46 (29.72%)
Average number of basis functions per batch  ...   410.29 (29.12%)
Average number of large shells per batch     ...   109.75 (70.60%)
Average number of large basis fcns per batch ...   289.58 (70.58%)
Maximum spatial batch extension              ...  10.39,  9.61, 13.03 au
Average spatial batch extension              ...   0.14,  0.12,  0.15 au

Overlap Fitting                  UseSFitting ... on
Constructing numerical overlap ... done (      0.2 sec)
Inverting numerical overlap    ... done (      0.2 sec)
Obtaining analytic overlap     ... done (      0.0 sec)
Final contraction and storage  ... done (      2.2 sec)


General Integration Accuracy     IntAcc      ...  4.010
Radial Grid Type                 RadialGrid  ... Gauss-Chebyshev
Angular Grid (max. acc.)         AngularGrid ... Lebedev-110
Angular grid pruning method      GridPruning ... 3 (G Style)
Weight generation scheme         WeightScheme... Becke
Basis function cutoff            BFCut       ...    1.0000e-11
Integration weight cutoff        WCut        ...    1.0000e-14
Grids for H and He will be reduced by one unit

# of grid points (after initial pruning)     ...  70512 (   0.0 sec)
# of grid points (after weights+screening)   ...  64104 (   0.3 sec)
nearest neighbour list constructed           ...    0.0 sec
Grid point re-assignment to atoms done       ...    0.0 sec
Grid point division into batches done        ...    0.1 sec
Reduced shell lists constructed in    0.3 sec

Total number of grid points                  ...    64104
Total number of batches                      ...     1030
Average number of points per batch           ...       62
Average number of grid points per atom       ...     1187
Average number of shells per batch           ...   155.14 (29.66%)
Average number of basis functions per batch  ...   409.45 (29.06%)
Average number of large shells per batch     ...   108.93 (70.22%)
Average number of large basis fcns per batch ...   286.34 (69.93%)
Maximum spatial batch extension              ...  11.03, 11.27, 13.79 au
Average spatial batch extension              ...   0.11,  0.11,  0.12 au

Overlap Fitting                  UseSFitting ... on
Constructing numerical overlap ... done (      0.2 sec)
Inverting numerical overlap    ... done (      0.2 sec)
Obtaining analytic overlap     ... done (      0.0 sec)
Final contraction and storage  ... done (      2.2 sec)

Time for X-Grid setup             =   11.119 sec
--------------
SCF ITERATIONS
--------------
ITER       Energy         Delta-E        Max-DP      RMS-DP      [F,P]     Damp
               ***  Starting incremental Fock matrix formation  ***
  0  -5220.2683706966   0.000000000000 0.04104627  0.00045702  0.2046676 0.7000
  1  -5220.5898565646  -0.321485867969 0.03888769  0.00036250  0.0994419 0.7000
                               ***Turning on DIIS***
  2  -5220.7406546473  -0.150798082690 0.07602176  0.00075664  0.0498039 0.0000
  3  -5220.9844403227  -0.243785675420 0.03004970  0.00026659  0.0475797 0.0000
  4  -5221.0321901662  -0.047749843546 0.01472736  0.00010028  0.0078006 0.0000
  5  -5221.0345098367  -0.002319670475 0.00627594  0.00005062  0.0071499 0.0000
                      *** Initiating the SOSCF procedure ***
                           *** Shutting down DIIS ***
                      *** Re-Reading the Fockian *** 
                      *** Removing any level shift *** 
ITER      Energy       Delta-E        Grad      Rot      Max-DP    RMS-DP
  6  -5221.03526049  -0.0007506538  0.001510  0.001510  0.003233  0.000029
               *** Restarting incremental Fock matrix formation ***
  7  -5221.03552838  -0.0002678906  0.000801  0.002273  0.016610  0.000079
  8  -5221.03563359  -0.0001052057  0.000446  0.002968  0.009815  0.000052
  9  -5221.03565701  -0.0000234193  0.000334  0.000795  0.008765  0.000040
 10  -5221.03567011  -0.0000131077  0.000090  0.000162  0.001296  0.000007
 11  -5221.03567033  -0.0000002161  0.000061  0.000132  0.000938  0.000004
 12  -5221.03567106  -0.0000007338  0.000014  0.000067  0.000241  0.000001
 13  -5221.03567111  -0.0000000505  0.000008  0.000040  0.000251  0.000001
 14  -5221.03567127  -0.0000001586  0.000004  0.000027  0.000216  0.000001
                  ***Gradient check signals convergence***
              ***Rediagonalizing the Fockian in SOSCF/NRSCF***

               *****************************************************
               *                     SUCCESS                       *
               *           SCF CONVERGED AFTER  15 CYCLES          *
               *****************************************************

Old exchange energy                            =   -121.136222726 Eh
New exchange energy                            =   -121.139277437 Eh
Exchange energy change after final integration =     -0.003054711 Eh
Total energy after final integration           =  -5221.038726058 Eh
Final COS-X integration done in                =    70.284 sec

----------------
TOTAL SCF ENERGY
----------------

Total Energy       :        -5221.03872606 Eh         -142071.68652 eV

Components:
Nuclear Repulsion  :         5833.77145299 Eh          158744.99168 eV
Electronic Energy  :       -11054.81017905 Eh         -300816.67820 eV
One Electron Energy:       -18804.80166563 Eh         -511704.66788 eV
Two Electron Energy:         7749.99148658 Eh          210887.98969 eV

Virial components:
Potential Energy   :       -10427.87714973 Eh         -283756.96317 eV
Kinetic Energy     :         5206.83842367 Eh          141685.27665 eV
Virial Ratio       :            2.00272724


DFT components:
N(Alpha)           :      181.000004921619 electrons
N(Beta)            :      181.000004921619 electrons
N(Total)           :      362.000009843238 electrons
E(XC)              :     -313.067873313177 Eh       

---------------
SCF CONVERGENCE
---------------

  Last Energy change         ...   -7.4502e-08  Tolerance :   1.0000e-08
  Last MAX-Density change    ...    8.1763e-14  Tolerance :   1.0000e-07
  Last RMS-Density change    ...    2.5888e-16  Tolerance :   5.0000e-09
  Last Orbital Gradient      ...    1.3795e-06  Tolerance :   1.0000e-05
  Last Orbital Rotation      ...    6.8690e-06  Tolerance :   1.0000e-05

             **** THE GBW FILE WAS UPDATED (total.gbw) ****
             **** DENSITY FILE WAS UPDATED (total.scfp.tmp) ****
             **** ENERGY FILE WAS UPDATED (total.en.tmp) ****
----------------
ORBITAL ENERGIES
----------------

  NO   OCC          E(Eh)            E(eV) 
   0   2.0000     -89.009550     -2422.0730 
   1   2.0000     -88.995502     -2421.6907 
   2   2.0000     -88.994901     -2421.6744 
   3   2.0000     -88.994474     -2421.6628 
   4   2.0000     -88.994276     -2421.6574 
   5   2.0000     -88.994157     -2421.6541 
   6   2.0000     -88.993292     -2421.6306 
   7   2.0000     -88.988382     -2421.4970 
   8   2.0000     -88.988308     -2421.4950 
   9   2.0000     -88.985922     -2421.4300 
  10   2.0000     -14.471023      -393.7766 
  11   2.0000     -14.447200      -393.1283 
  12   2.0000     -14.431926      -392.7127 
  13   2.0000     -10.382439      -282.5205 
  14   2.0000     -10.366500      -282.0868 
  15   2.0000     -10.366492      -282.0866 
  16   2.0000     -10.365765      -282.0668 
  17   2.0000     -10.365759      -282.0666 
  18   2.0000     -10.364459      -282.0313 
  19   2.0000     -10.363118      -281.9948 
  20   2.0000     -10.362387      -281.9749 
  21   2.0000     -10.359025      -281.8834 
  22   2.0000     -10.350288      -281.6457 
  23   2.0000     -10.349177      -281.6154 
  24   2.0000     -10.340124      -281.3691 
  25   2.0000     -10.339549      -281.3534 
  26   2.0000     -10.338720      -281.3309 
  27   2.0000     -10.332596      -281.1642 
  28   2.0000     -10.332148      -281.1520 
  29   2.0000     -10.328393      -281.0499 
  30   2.0000     -10.316071      -280.7146 
  31   2.0000     -10.315404      -280.6964 
  32   2.0000     -10.299248      -280.2568 
  33   2.0000     -10.293597      -280.1030 
  34   2.0000     -10.292587      -280.0755 
  35   2.0000     -10.292472      -280.0724 
  36   2.0000     -10.288566      -279.9661 
  37   2.0000     -10.286669      -279.9145 
  38   2.0000     -10.286483      -279.9094 
  39   2.0000     -10.285926      -279.8943 
  40   2.0000     -10.276956      -279.6502 
  41   2.0000      -8.105850      -220.5714 
  42   2.0000      -8.091532      -220.1818 
  43   2.0000      -8.090933      -220.1655 
  44   2.0000      -8.090512      -220.1540 
  45   2.0000      -8.090298      -220.1482 
  46   2.0000      -8.090162      -220.1445 
  47   2.0000      -8.089876      -220.1367 
  48   2.0000      -8.084571      -219.9924 
  49   2.0000      -8.084493      -219.9903 
  50   2.0000      -8.081830      -219.9178 
  51   2.0000      -6.059102      -164.8765 
  52   2.0000      -6.054995      -164.7648 
  53   2.0000      -6.052943      -164.7090 
  54   2.0000      -6.045840      -164.5157 
  55   2.0000      -6.045249      -164.4996 
  56   2.0000      -6.044825      -164.4880 
  57   2.0000      -6.044619      -164.4824 
  58   2.0000      -6.044494      -164.4790 
  59   2.0000      -6.042906      -164.4358 
  60   2.0000      -6.041584      -164.3999 
  61   2.0000      -6.040988      -164.3836 
  62   2.0000      -6.040564      -164.3721 
  63   2.0000      -6.040338      -164.3660 
  64   2.0000      -6.040192      -164.3620 
  65   2.0000      -6.039096      -164.3322 
  66   2.0000      -6.038921      -164.3274 
  67   2.0000      -6.038828      -164.3249 
  68   2.0000      -6.037065      -164.2769 
  69   2.0000      -6.036435      -164.2597 
  70   2.0000      -6.036314      -164.2564 
  71   2.0000      -6.035867      -164.2443 
  72   2.0000      -6.035444      -164.2328 
  73   2.0000      -6.035227      -164.2269 
  74   2.0000      -6.035090      -164.2231 
  75   2.0000      -6.034648      -164.2111 
  76   2.0000      -6.034572      -164.2090 
  77   2.0000      -6.032028      -164.1398 
  78   2.0000      -6.029388      -164.0680 
  79   2.0000      -6.029309      -164.0658 
  80   2.0000      -6.026262      -163.9829 
  81   2.0000      -1.107826       -30.1455 
  82   2.0000      -1.102688       -30.0057 
  83   2.0000      -1.076419       -29.2908 
  84   2.0000      -1.030944       -28.0534 
  85   2.0000      -1.018072       -27.7031 
  86   2.0000      -0.985614       -26.8199 
  87   2.0000      -0.981382       -26.7048 
  88   2.0000      -0.967910       -26.3382 
  89   2.0000      -0.964342       -26.2411 
  90   2.0000      -0.935364       -25.4526 
  91   2.0000      -0.930324       -25.3154 
  92   2.0000      -0.922799       -25.1106 
  93   2.0000      -0.921769       -25.0826 
  94   2.0000      -0.918758       -25.0007 
  95   2.0000      -0.905633       -24.6435 
  96   2.0000      -0.900732       -24.5102 
  97   2.0000      -0.877120       -23.8676 
  98   2.0000      -0.870161       -23.6783 
  99   2.0000      -0.868610       -23.6361 
 100   2.0000      -0.858399       -23.3582 
 101   2.0000      -0.849505       -23.1162 
 102   2.0000      -0.842506       -22.9258 
 103   2.0000      -0.830262       -22.5926 
 104   2.0000      -0.812300       -22.1038 
 105   2.0000      -0.778869       -21.1941 
 106   2.0000      -0.768703       -20.9175 
 107   2.0000      -0.755023       -20.5452 
 108   2.0000      -0.748284       -20.3618 
 109   2.0000      -0.735109       -20.0033 
 110   2.0000      -0.720077       -19.5943 
 111   2.0000      -0.718930       -19.5631 
 112   2.0000      -0.714149       -19.4330 
 113   2.0000      -0.707245       -19.2451 
 114   2.0000      -0.681065       -18.5327 
 115   2.0000      -0.673140       -18.3171 
 116   2.0000      -0.653496       -17.7825 
 117   2.0000      -0.647490       -17.6191 
 118   2.0000      -0.643431       -17.5086 
 119   2.0000      -0.624143       -16.9838 
 120   2.0000      -0.622305       -16.9338 
 121   2.0000      -0.616264       -16.7694 
 122   2.0000      -0.613551       -16.6956 
 123   2.0000      -0.606715       -16.5096 
 124   2.0000      -0.604924       -16.4608 
 125   2.0000      -0.591463       -16.0945 
 126   2.0000      -0.578970       -15.7546 
 127   2.0000      -0.575387       -15.6571 
 128   2.0000      -0.569991       -15.5102 
 129   2.0000      -0.560525       -15.2527 
 130   2.0000      -0.555614       -15.1190 
 131   2.0000      -0.552950       -15.0465 
 132   2.0000      -0.545868       -14.8538 
 133   2.0000      -0.540209       -14.6998 
 134   2.0000      -0.537695       -14.6314 
 135   2.0000      -0.535392       -14.5688 
 136   2.0000      -0.532154       -14.4806 
 137   2.0000      -0.529519       -14.4089 
 138   2.0000      -0.526977       -14.3398 
 139   2.0000      -0.522236       -14.2108 
 140   2.0000      -0.518469       -14.1083 
 141   2.0000      -0.514287       -13.9945 
 142   2.0000      -0.511554       -13.9201 
 143   2.0000      -0.506708       -13.7882 
 144   2.0000      -0.502358       -13.6699 
 145   2.0000      -0.487380       -13.2623 
 146   2.0000      -0.485353       -13.2071 
 147   2.0000      -0.476476       -12.9656 
 148   2.0000      -0.472160       -12.8481 
 149   2.0000      -0.467267       -12.7150 
 150   2.0000      -0.464511       -12.6400 
 151   2.0000      -0.458011       -12.4631 
 152   2.0000      -0.457495       -12.4491 
 153   2.0000      -0.455926       -12.4064 
 154   2.0000      -0.454886       -12.3781 
 155   2.0000      -0.446032       -12.1371 
 156   2.0000      -0.442825       -12.0499 
 157   2.0000      -0.440278       -11.9806 
 158   2.0000      -0.439417       -11.9572 
 159   2.0000      -0.435652       -11.8547 
 160   2.0000      -0.432803       -11.7772 
 161   2.0000      -0.420553       -11.4438 
 162   2.0000      -0.417307       -11.3555 
 163   2.0000      -0.412853       -11.2343 
 164   2.0000      -0.405177       -11.0254 
 165   2.0000      -0.400308       -10.8929 
 166   2.0000      -0.388008       -10.5582 
 167   2.0000      -0.386982       -10.5303 
 168   2.0000      -0.379904       -10.3377 
 169   2.0000      -0.374364       -10.1870 
 170   2.0000      -0.369598       -10.0573 
 171   2.0000      -0.366087        -9.9617 
 172   2.0000      -0.358112        -9.7447 
 173   2.0000      -0.358003        -9.7418 
 174   2.0000      -0.344000        -9.3607 
 175   2.0000      -0.317999        -8.6532 
 176   2.0000      -0.306085        -8.3290 
 177   2.0000      -0.299234        -8.1426 
 178   2.0000      -0.290715        -7.9108 
 179   2.0000      -0.282665        -7.6917 
 180   2.0000      -0.253884        -6.9085 
 181   0.0000      -0.021287        -0.5792 
 182   0.0000      -0.004916        -0.1338 
 183   0.0000       0.017406         0.4736 
 184   0.0000       0.023168         0.6304 
 185   0.0000       0.028689         0.7807 
 186   0.0000       0.035184         0.9574 
 187   0.0000       0.051118         1.3910 
 188   0.0000       0.053584         1.4581 
 189   0.0000       0.054489         1.4827 
 190   0.0000       0.066588         1.8120 
 191   0.0000       0.067494         1.8366 
 192   0.0000       0.068153         1.8545 
 193   0.0000       0.075399         2.0517 
 194   0.0000       0.080246         2.1836 
 195   0.0000       0.083070         2.2604 
 196   0.0000       0.087056         2.3689 
 197   0.0000       0.089344         2.4312 
 198   0.0000       0.094601         2.5742 
 199   0.0000       0.098904         2.6913 
 200   0.0000       0.100679         2.7396 
 201   0.0000       0.102097         2.7782 
 202   0.0000       0.108785         2.9602 
 203   0.0000       0.110677         3.0117 
 204   0.0000       0.115557         3.1445 
 205   0.0000       0.127704         3.4750 
 206   0.0000       0.129730         3.5301 
 207   0.0000       0.130979         3.5641 
 208   0.0000       0.135711         3.6929 
 209   0.0000       0.139083         3.7847 
 210   0.0000       0.145042         3.9468 
 211   0.0000       0.151035         4.1099 
 212   0.0000       0.152675         4.1545 
 213   0.0000       0.156302         4.2532 
 214   0.0000       0.156724         4.2647 
 215   0.0000       0.158926         4.3246 
 216   0.0000       0.164998         4.4898 
 217   0.0000       0.167670         4.5625 
 218   0.0000       0.169532         4.6132 
 219   0.0000       0.170085         4.6283 
 220   0.0000       0.175873         4.7857 
 221   0.0000       0.179997         4.8980 
 222   0.0000       0.183980         5.0063 
 223   0.0000       0.186135         5.0650 
 224   0.0000       0.186519         5.0754 
 225   0.0000       0.193557         5.2670 
 226   0.0000       0.201851         5.4927 
 227   0.0000       0.208205         5.6656 
 228   0.0000       0.211968         5.7679 
 229   0.0000       0.214848         5.8463 
 230   0.0000       0.217309         5.9133 
 231   0.0000       0.221370         6.0238 
 232   0.0000       0.222314         6.0495 
 233   0.0000       0.230733         6.2786 
 234   0.0000       0.234048         6.3688 
 235   0.0000       0.236699         6.4409 
 236   0.0000       0.238874         6.5001 
 237   0.0000       0.241194         6.5632 
 238   0.0000       0.246476         6.7070 
 239   0.0000       0.247361         6.7310 
 240   0.0000       0.256930         6.9914 
 241   0.0000       0.261610         7.1188 
 242   0.0000       0.263676         7.1750 
 243   0.0000       0.265999         7.2382 
 244   0.0000       0.269236         7.3263 
 245   0.0000       0.271316         7.3829 
 246   0.0000       0.275548         7.4980 
 247   0.0000       0.277786         7.5590 
 248   0.0000       0.278509         7.5786 
 249   0.0000       0.281025         7.6471 
 250   0.0000       0.284504         7.7417 
 251   0.0000       0.285312         7.7637 
 252   0.0000       0.285805         7.7771 
 253   0.0000       0.286944         7.8081 
 254   0.0000       0.289174         7.8688 
 255   0.0000       0.290692         7.9101 
 256   0.0000       0.291474         7.9314 
 257   0.0000       0.293238         7.9794 
 258   0.0000       0.294081         8.0024 
 259   0.0000       0.296409         8.0657 
 260   0.0000       0.298038         8.1100 
 261   0.0000       0.301727         8.2104 
 262   0.0000       0.303275         8.2525 
 263   0.0000       0.305485         8.3127 
 264   0.0000       0.308408         8.3922 
 265   0.0000       0.310350         8.4450 
 266   0.0000       0.312418         8.5013 
 267   0.0000       0.317240         8.6325 
 268   0.0000       0.318379         8.6635 
 269   0.0000       0.321103         8.7377 
 270   0.0000       0.322288         8.7699 
 271   0.0000       0.324974         8.8430 
 272   0.0000       0.326838         8.8937 
 273   0.0000       0.328690         8.9441 
 274   0.0000       0.330544         8.9946 
 275   0.0000       0.334029         9.0894 
 276   0.0000       0.336488         9.1563 
 277   0.0000       0.338702         9.2166 
 278   0.0000       0.341121         9.2824 
 279   0.0000       0.341696         9.2980 
 280   0.0000       0.342705         9.3255 
 281   0.0000       0.345876         9.4118 
 282   0.0000       0.348342         9.4789 
 283   0.0000       0.348957         9.4956 
 284   0.0000       0.352346         9.5878 
 285   0.0000       0.353628         9.6227 
 286   0.0000       0.353896         9.6300 
 287   0.0000       0.357207         9.7201 
 288   0.0000       0.358624         9.7587 
 289   0.0000       0.363458         9.8902 
 290   0.0000       0.366019         9.9599 
 291   0.0000       0.368171        10.0185 
 292   0.0000       0.369145        10.0450 
 293   0.0000       0.372921        10.1477 
 294   0.0000       0.375059        10.2059 
 295   0.0000       0.380176        10.3451 
 296   0.0000       0.381150        10.3716 
 297   0.0000       0.383070        10.4239 
 298   0.0000       0.385384        10.4868 
 299   0.0000       0.388521        10.5722 
 300   0.0000       0.389520        10.5994 
 301   0.0000       0.396475        10.7886 
 302   0.0000       0.398276        10.8376 
 303   0.0000       0.399029        10.8581 
 304   0.0000       0.401655        10.9296 
 305   0.0000       0.402201        10.9445 
 306   0.0000       0.404484        11.0066 
 307   0.0000       0.406681        11.0664 
 308   0.0000       0.412422        11.2226 
 309   0.0000       0.413616        11.2551 
 310   0.0000       0.414431        11.2772 
 311   0.0000       0.417514        11.3611 
 312   0.0000       0.419154        11.4058 
 313   0.0000       0.421292        11.4639 
 314   0.0000       0.423490        11.5237 
 315   0.0000       0.427365        11.6292 
 316   0.0000       0.428477        11.6595 
 317   0.0000       0.432086        11.7577 
 318   0.0000       0.433404        11.7935 
 319   0.0000       0.438249        11.9254 
 320   0.0000       0.439810        11.9678 
 321   0.0000       0.441301        12.0084 
 322   0.0000       0.442008        12.0276 
 323   0.0000       0.445091        12.1116 
 324   0.0000       0.447960        12.1896 
 325   0.0000       0.450384        12.2556 
 326   0.0000       0.455111        12.3842 
 327   0.0000       0.457778        12.4568 
 328   0.0000       0.460183        12.5222 
 329   0.0000       0.465616        12.6701 
 330   0.0000       0.470047        12.7906 
 331   0.0000       0.472392        12.8544 
 332   0.0000       0.474035        12.8992 
 333   0.0000       0.474721        12.9178 
 334   0.0000       0.475665        12.9435 
 335   0.0000       0.480525        13.0758 
 336   0.0000       0.481161        13.0931 
 337   0.0000       0.484190        13.1755 
 338   0.0000       0.486280        13.2324 
 339   0.0000       0.487743        13.2722 
 340   0.0000       0.490282        13.3413 
 341   0.0000       0.492320        13.3967 
 342   0.0000       0.494264        13.4496 
 343   0.0000       0.495442        13.4817 
 344   0.0000       0.497329        13.5330 
 345   0.0000       0.499639        13.5959 
 346   0.0000       0.501119        13.6361 
 347   0.0000       0.501986        13.6597 
 348   0.0000       0.506600        13.7853 
 349   0.0000       0.507865        13.8197 
 350   0.0000       0.510353        13.8874 
 351   0.0000       0.512434        13.9440 
 352   0.0000       0.513379        13.9697 
 353   0.0000       0.514071        13.9886 
 354   0.0000       0.520787        14.1713 
 355   0.0000       0.522819        14.2266 
 356   0.0000       0.525700        14.3050 
 357   0.0000       0.525733        14.3059 
 358   0.0000       0.530104        14.4249 
 359   0.0000       0.533066        14.5055 
 360   0.0000       0.536308        14.5937 
 361   0.0000       0.538274        14.6472 
 362   0.0000       0.540523        14.7084 
 363   0.0000       0.544371        14.8131 
 364   0.0000       0.545772        14.8512 
 365   0.0000       0.548703        14.9310 
 366   0.0000       0.550355        14.9759 
 367   0.0000       0.553235        15.0543 
 368   0.0000       0.554780        15.0963 
 369   0.0000       0.559668        15.2293 
 370   0.0000       0.561386        15.2761 
 371   0.0000       0.564192        15.3524 
 372   0.0000       0.564574        15.3628 
 373   0.0000       0.567154        15.4331 
 374   0.0000       0.569655        15.5011 
 375   0.0000       0.574511        15.6332 
 376   0.0000       0.576215        15.6796 
 377   0.0000       0.579428        15.7670 
 378   0.0000       0.584602        15.9078 
 379   0.0000       0.586607        15.9624 
 380   0.0000       0.589192        16.0327 
 381   0.0000       0.592805        16.1311 
 382   0.0000       0.595430        16.2025 
 383   0.0000       0.600461        16.3394 
 384   0.0000       0.601944        16.3797 
 385   0.0000       0.605654        16.4807 
 386   0.0000       0.609920        16.5968 
 387   0.0000       0.615413        16.7462 
 388   0.0000       0.618488        16.8299 
 389   0.0000       0.620128        16.8745 
 390   0.0000       0.624366        16.9899 
 391   0.0000       0.626877        17.0582 
 392   0.0000       0.630091        17.1456 
 393   0.0000       0.631512        17.1843 
 394   0.0000       0.633810        17.2469 
 395   0.0000       0.639373        17.3982 
 396   0.0000       0.644884        17.5482 
 397   0.0000       0.647734        17.6257 
 398   0.0000       0.650693        17.7063 
 399   0.0000       0.652021        17.7424 
 400   0.0000       0.659246        17.9390 
 401   0.0000       0.662014        18.0143 
 402   0.0000       0.663638        18.0585 
 403   0.0000       0.670279        18.2392 
 404   0.0000       0.670519        18.2458 
 405   0.0000       0.674221        18.3465 
 406   0.0000       0.678531        18.4638 
 407   0.0000       0.682071        18.5601 
 408   0.0000       0.683112        18.5884 
 409   0.0000       0.685017        18.6403 
 410   0.0000       0.688867        18.7450 
 411   0.0000       0.689669        18.7669 
 412   0.0000       0.691588        18.8191 
 413   0.0000       0.694677        18.9031 
 414   0.0000       0.699670        19.0390 
 415   0.0000       0.701337        19.0843 
 416   0.0000       0.704508        19.1706 
 417   0.0000       0.705437        19.1959 
 418   0.0000       0.706512        19.2252 
 419   0.0000       0.712492        19.3879 
 420   0.0000       0.717279        19.5182 
 421   0.0000       0.718280        19.5454 
 422   0.0000       0.721010        19.6197 
 423   0.0000       0.724012        19.7014 
 424   0.0000       0.728097        19.8125 
 425   0.0000       0.729685        19.8558 
 426   0.0000       0.733207        19.9516 
 427   0.0000       0.736472        20.0404 
 428   0.0000       0.737650        20.0725 
 429   0.0000       0.739548        20.1241 
 430   0.0000       0.744217        20.2512 
 431   0.0000       0.747559        20.3421 
 432   0.0000       0.749948        20.4071 
 433   0.0000       0.750798        20.4303 
 434   0.0000       0.753850        20.5133 
 435   0.0000       0.758654        20.6440 
 436   0.0000       0.762728        20.7549 
 437   0.0000       0.765239        20.8232 
 438   0.0000       0.769079        20.9277 
 439   0.0000       0.774374        21.0718 
 440   0.0000       0.775413        21.1001 
 441   0.0000       0.775963        21.1150 
 442   0.0000       0.779355        21.2073 
 443   0.0000       0.781351        21.2616 
 444   0.0000       0.786050        21.3895 
 445   0.0000       0.790635        21.5143 
 446   0.0000       0.795451        21.6453 
 447   0.0000       0.797399        21.6983 
 448   0.0000       0.800490        21.7824 
 449   0.0000       0.806520        21.9465 
 450   0.0000       0.808447        21.9990 
 451   0.0000       0.812788        22.1171 
 452   0.0000       0.817496        22.2452 
 453   0.0000       0.819024        22.2868 
 454   0.0000       0.821695        22.3595 
 455   0.0000       0.823125        22.3984 
 456   0.0000       0.824027        22.4229 
 457   0.0000       0.825744        22.4696 
 458   0.0000       0.828613        22.5477 
 459   0.0000       0.830900        22.6099 
 460   0.0000       0.835164        22.7260 
 461   0.0000       0.836265        22.7559 
 462   0.0000       0.839046        22.8316 
 463   0.0000       0.840493        22.8710 
 464   0.0000       0.845948        23.0194 
 465   0.0000       0.846564        23.0362 
 466   0.0000       0.847584        23.0639 
 467   0.0000       0.850934        23.1551 
 468   0.0000       0.857258        23.3272 
 469   0.0000       0.862815        23.4784 
 470   0.0000       0.864855        23.5339 
 471   0.0000       0.870940        23.6995 
 472   0.0000       0.873019        23.7561 
 473   0.0000       0.880871        23.9697 
 474   0.0000       0.883866        24.0512 
 475   0.0000       0.887403        24.1475 
 476   0.0000       0.890503        24.2318 
 477   0.0000       0.895722        24.3738 
 478   0.0000       0.899378        24.4733 
 479   0.0000       0.906317        24.6621 
 480   0.0000       0.907523        24.6950 
 481   0.0000       0.909207        24.7408 
 482   0.0000       0.910218        24.7683 
 483   0.0000       0.914449        24.8834 
 484   0.0000       0.922111        25.0919 
 485   0.0000       0.926869        25.2214 
 486   0.0000       0.930269        25.3139 
 487   0.0000       0.931476        25.3468 
 488   0.0000       0.939138        25.5552 
 489   0.0000       0.941631        25.6231 
 490   0.0000       0.943391        25.6710 
 491   0.0000       0.948868        25.8200 
 492   0.0000       0.951065        25.8798 
 493   0.0000       0.952728        25.9250 
 494   0.0000       0.957797        26.0630 
 495   0.0000       0.962201        26.1828 
 496   0.0000       0.963206        26.2102 
 497   0.0000       0.968111        26.3436 
 498   0.0000       0.971255        26.4292 
 499   0.0000       0.972617        26.4663 
 500   0.0000       0.979049        26.6413 
 501   0.0000       0.983454        26.7612 
 502   0.0000       0.989304        26.9203 
 503   0.0000       0.991746        26.9868 
 504   0.0000       0.997612        27.1464 
 505   0.0000       1.000483        27.2245 
 506   0.0000       1.003508        27.3068 
 507   0.0000       1.004455        27.3326 
 508   0.0000       1.009675        27.4747 
 509   0.0000       1.013221        27.5711 
 510   0.0000       1.015520        27.6337 
 511   0.0000       1.020833        27.7783 
 512   0.0000       1.024736        27.8845 
 513   0.0000       1.036106        28.1939 
 514   0.0000       1.037478        28.2312 
 515   0.0000       1.043910        28.4062 
 516   0.0000       1.047615        28.5070 
 517   0.0000       1.052876        28.6502 
 518   0.0000       1.056752        28.7557 
 519   0.0000       1.065149        28.9842 
 520   0.0000       1.068184        29.0668 
 521   0.0000       1.069854        29.1122 
 522   0.0000       1.076074        29.2814 
 523   0.0000       1.078138        29.3376 
 524   0.0000       1.081497        29.4290 
 525   0.0000       1.084863        29.5206 
 526   0.0000       1.091760        29.7083 
 527   0.0000       1.096263        29.8308 
 528   0.0000       1.100885        29.9566 
 529   0.0000       1.105871        30.0923 
 530   0.0000       1.112786        30.2804 
 531   0.0000       1.115653        30.3585 
 532   0.0000       1.116938        30.3934 
 533   0.0000       1.120314        30.4853 
 534   0.0000       1.128310        30.7029 
 535   0.0000       1.134351        30.8673 
 536   0.0000       1.137366        30.9493 
 537   0.0000       1.141681        31.0667 
 538   0.0000       1.148871        31.2624 
 539   0.0000       1.160928        31.5905 
 540   0.0000       1.166530        31.7429 
 541   0.0000       1.168490        31.7962 
 542   0.0000       1.170040        31.8384 
 543   0.0000       1.175844        31.9963 
 544   0.0000       1.177695        32.0467 
 545   0.0000       1.185156        32.2497 
 546   0.0000       1.193077        32.4653 
 547   0.0000       1.197900        32.5965 
 548   0.0000       1.201523        32.6951 
 549   0.0000       1.205269        32.7970 
 550   0.0000       1.213429        33.0191 
 551   0.0000       1.218220        33.1495 
 552   0.0000       1.223318        33.2882 
 553   0.0000       1.225233        33.3403 
 554   0.0000       1.226547        33.3760 
 555   0.0000       1.228511        33.4295 
 556   0.0000       1.232512        33.5383 
 557   0.0000       1.234508        33.5927 
 558   0.0000       1.247047        33.9339 
 559   0.0000       1.248081        33.9620 
 560   0.0000       1.248423        33.9713 
 561   0.0000       1.248975        33.9863 
 562   0.0000       1.255772        34.1713 
 563   0.0000       1.260010        34.2866 
 564   0.0000       1.262207        34.3464 
 565   0.0000       1.270764        34.5792 
 566   0.0000       1.273310        34.6485 
 567   0.0000       1.283257        34.9192 
 568   0.0000       1.286446        35.0060 
 569   0.0000       1.290469        35.1154 
 570   0.0000       1.296274        35.2734 
 571   0.0000       1.304304        35.4919 
 572   0.0000       1.308140        35.5963 
 573   0.0000       1.308445        35.6046 
 574   0.0000       1.311342        35.6834 
 575   0.0000       1.314433        35.7675 
 576   0.0000       1.316895        35.8345 
 577   0.0000       1.322988        36.0003 
 578   0.0000       1.327513        36.1235 
 579   0.0000       1.335731        36.3471 
 580   0.0000       1.339210        36.4418 
 581   0.0000       1.351286        36.7704 
 582   0.0000       1.354630        36.8613 
 583   0.0000       1.357126        36.9293 
 584   0.0000       1.362305        37.0702 
 585   0.0000       1.366529        37.1852 
 586   0.0000       1.375950        37.4415 
 587   0.0000       1.377089        37.4725 
 588   0.0000       1.389900        37.8211 
 589   0.0000       1.391381        37.8614 
 590   0.0000       1.402754        38.1709 
 591   0.0000       1.407239        38.2929 
 592   0.0000       1.411371        38.4054 
 593   0.0000       1.420383        38.6506 
 594   0.0000       1.425927        38.8014 
 595   0.0000       1.431521        38.9537 
 596   0.0000       1.436454        39.0879 
 597   0.0000       1.438134        39.1336 
 598   0.0000       1.446690        39.3664 
 599   0.0000       1.452866        39.5345 
 600   0.0000       1.459830        39.7240 
 601   0.0000       1.462835        39.8058 
 602   0.0000       1.468140        39.9501 
 603   0.0000       1.473760        40.1030 
 604   0.0000       1.477060        40.1929 
 605   0.0000       1.479717        40.2651 
 606   0.0000       1.487813        40.4855 
 607   0.0000       1.493361        40.6364 
 608   0.0000       1.495963        40.7072 
 609   0.0000       1.497507        40.7492 
 610   0.0000       1.498548        40.7776 
 611   0.0000       1.500885        40.8411 
 612   0.0000       1.503771        40.9197 
 613   0.0000       1.506415        40.9916 
 614   0.0000       1.512113        41.1467 
 615   0.0000       1.518246        41.3136 
 616   0.0000       1.523827        41.4654 
 617   0.0000       1.528964        41.6052 
 618   0.0000       1.530034        41.6344 
 619   0.0000       1.537466        41.8366 
 620   0.0000       1.539276        41.8858 
 621   0.0000       1.541907        41.9574 
 622   0.0000       1.545303        42.0498 
 623   0.0000       1.550409        42.1888 
 624   0.0000       1.554648        42.3041 
 625   0.0000       1.556085        42.3432 
 626   0.0000       1.561083        42.4792 
 627   0.0000       1.562679        42.5226 
 628   0.0000       1.564745        42.5789 
 629   0.0000       1.567545        42.6551 
 630   0.0000       1.568251        42.6743 
 631   0.0000       1.572619        42.7931 
 632   0.0000       1.574367        42.8407 
 633   0.0000       1.577031        42.9132 
 634   0.0000       1.584647        43.1204 
 635   0.0000       1.586653        43.1750 
 636   0.0000       1.589558        43.2541 
 637   0.0000       1.593316        43.3563 
[...]
 361   9.375     132.2   0.006958   0.005994  -11.279729  -11.687958     0.06 (  92-> 111)    0.02 (  93-> 111)    0.02 (  91-> 111)
 362   9.380     132.2   0.004693   0.003604  -19.725287  -17.575122     0.03 (  86-> 100)    0.02 (  87-> 100)    0.02 (  89-> 100)
 363   9.386     132.1   0.017440   0.014708  -13.976123  -11.693658     0.05 (  93-> 141)    0.02 (  93-> 114)    0.02 (  93-> 142)
 364   9.400     131.9   0.020323   0.016394  -2.697776  -2.579912     0.05 (  89-> 100)    0.04 (  73-> 106)    0.03 (  66-> 102)
 365   9.407     131.8   0.014251   0.011306   0.429219   4.271120     0.03 (  74->  98)    0.02 (  92-> 109)    0.01 (  79-> 117)
 366   9.409     131.8   0.031074   0.026592  42.549589  35.180367     0.06 (  68->  99)    0.02 (  95-> 143)    0.01 (  92-> 109)
 367   9.412     131.7   0.008376   0.006416  -8.581569  -6.668318     0.02 (  95-> 143)    0.02 (  95-> 149)    0.02 (  96-> 153)
 368   9.425     131.5   0.005410   0.004322  -17.284696  -17.881552     0.05 (  92-> 110)    0.02 (  92-> 109)    0.02 (  94-> 115)
 369   9.427     131.5   0.025215   0.021024  40.389577  37.041181     0.11 (  68->  99)    0.04 (  89-> 100)    0.02 (  67->  99)
 370   9.429     131.5   0.000792   0.000602  -9.509057  -7.088349     0.06 (  89-> 100)    0.05 (  93-> 114)    0.03 (  68->  99)
 371   9.435     131.4   0.043829   0.034597  -11.434997  -12.952782     0.03 (  70->  97)    0.02 (  68->  99)    0.02 (  96-> 124)
 372   9.439     131.4   0.036944   0.031981  56.164984  52.240418     0.05 (  68->  99)    0.04 (  74->  98)    0.02 (  86-> 100)
 373   9.444     131.3   0.006821   0.005391  -9.187037  -8.292638     0.03 (  93-> 114)    0.02 (  94-> 123)    0.02 (  95-> 126)
 374   9.451     131.2   0.032829   0.026855  -40.371741  -37.546222     0.03 (  68->  99)    0.03 (  88-> 128)    0.01 (  76-> 106)
 375   9.455     131.1   0.030602   0.026195  -15.804366  -15.371908     0.02 (  91-> 110)    0.02 (  92-> 109)    0.02 (  91-> 126)
 376   9.462     131.0   0.016020   0.015152  19.961127  18.291764     0.02 (  89-> 100)    0.02 (  96-> 122)    0.02 (  96-> 124)
 377   9.469     130.9   0.036923   0.030297  -47.462804  -46.172012     0.05 (  92-> 110)    0.03 (  91-> 111)    0.02 (  93-> 114)
 378   9.474     130.9   0.004050   0.003137  -7.318675  -6.684855     0.04 (  68->  99)    0.02 (  70-> 101)    0.01 (  96-> 124)
 379   9.482     130.8   0.008592   0.008133  40.716781  38.671324     0.07 (  96-> 124)    0.04 (  96-> 122)    0.02 (  66-> 102)
 380   9.484     130.7   0.003127   0.002587  10.566405  10.298927     0.04 (  96-> 124)    0.03 (  94-> 123)    0.03 (  70->  97)
 381   9.493     130.6   0.009412   0.008039   5.917754   5.114768     0.03 (  83-> 101)    0.02 (  82-> 119)    0.01 (  96-> 127)
 382   9.500     130.5   0.009069   0.007442   4.066426   2.889795     0.02 (  93-> 145)    0.01 (  95-> 116)    0.01 (  95-> 149)
 383   9.504     130.5   0.035737   0.028886  16.517840  14.874923     0.02 (  78->  97)    0.02 (  88-> 128)    0.02 (  73-> 106)
 384   9.511     130.4   0.017126   0.013534  21.404823  14.247748     0.08 (  95-> 116)    0.03 (  73->  97)    0.02 (  77->  97)
 385   9.517     130.3   0.015781   0.013348  -29.661074  -26.130617     0.03 (  91-> 126)    0.02 (  93-> 141)    0.02 (  90-> 124)
 386   9.523     130.2   0.026542   0.021551  46.069036  44.133194     0.05 (  96-> 124)    0.03 (  86-> 100)    0.02 (  83-> 101)
 387   9.529     130.1   0.028600   0.024209  15.022078  15.646886     0.03 (  95-> 117)    0.02 (  95-> 116)    0.02 (  94-> 116)
 388   9.534     130.0   0.012347   0.010005  62.227665  56.860748     0.07 (  96-> 124)    0.03 (  93-> 114)    0.03 (  92-> 114)
 389   9.536     130.0   0.004769   0.003981   4.114224   5.709397     0.03 (  88-> 128)    0.03 (  95-> 116)    0.02 (  86-> 100)
 390   9.544     129.9   0.008655   0.006743  -0.119998  -2.369793     0.03 (  94-> 115)    0.03 (  94-> 120)    0.02 (  96-> 124)
 391   9.549     129.8   0.025768   0.022115   1.465557   1.418663     0.08 (  96-> 124)    0.02 (  96-> 125)    0.02 (  95-> 116)
 392   9.554     129.8   0.010427   0.008856  20.126337  19.110902     0.04 (  95-> 116)    0.01 (  95-> 117)    0.01 (  90-> 122)
 393   9.557     129.7   0.019770   0.015547  -8.342238  -6.476764     0.04 (  95-> 116)    0.03 (  88-> 128)    0.02 (  94-> 116)
 394   9.560     129.7   0.031389   0.026948   0.400475   2.000452     0.04 (  73->  97)    0.03 (  73-> 111)    0.03 (  96-> 124)
 395   9.569     129.6   0.038327   0.031936  54.291828  48.605864     0.02 (  96-> 127)    0.01 (  75->  97)    0.01 (  77-> 111)
 396   9.571     129.5   0.008545   0.007611  -2.076930  -1.484345     0.04 (  92-> 110)    0.03 (  73-> 113)    0.02 (  77-> 113)
 397   9.575     129.5   0.020456   0.018231  18.218632  18.868805     0.03 (  92-> 112)    0.02 (  92-> 110)    0.02 (  93-> 114)
 398   9.584     129.4   0.022342   0.020024  -7.680591  -7.898758     0.03 (  70->  97)    0.02 (  86-> 100)    0.02 (  73->  97)
 399   9.589     129.3   0.012374   0.010345  20.839166  20.030644     0.09 (  77->  98)    0.09 (  73->  97)    0.02 (  78->  98)
 400   9.598     129.2   0.004064   0.004083  -8.087902  -8.450413     0.02 (  61-> 100)    0.01 (  88-> 101)    0.01 (  67-> 103)
 401   9.603     129.1   0.027512   0.023366   0.754841  -0.770859     0.02 (  87-> 135)    0.02 (  87-> 128)    0.02 (  88-> 135)
 402   9.609     129.0   0.014857   0.011783   8.114890   6.856504     0.03 (  84-> 109)    0.03 (  87-> 128)    0.02 (  87-> 135)
 403   9.610     129.0   0.043289   0.035494   8.663763   3.522340     0.05 (  81->  99)    0.04 (  77-> 113)    0.03 (  84->  99)
 404   9.615     128.9   0.010300   0.009064  20.123987  19.921122     0.05 (  84->  99)    0.05 (  81->  99)    0.04 (  77->  98)
 405   9.617     128.9   0.005207   0.003720  17.794117  16.424213     0.04 (  87-> 128)    0.02 (  77->  98)    0.01 (  87-> 111)
 406   9.624     128.8   0.015217   0.012433  -47.111576  -45.389564     0.04 (  81->  99)    0.03 (  84->  99)    0.02 (  92-> 110)
 407   9.629     128.8   0.012079   0.010092   9.927549   9.130205     0.03 (  81->  99)    0.03 (  84->  99)    0.02 (  85->  99)
 408   9.636     128.7   0.003794   0.003532  -0.530223  -0.888258     0.02 (  78->  98)    0.02 (  80->  98)    0.02 (  93-> 114)
 409   9.641     128.6   0.026589   0.022023  -3.823805  -3.189813     0.06 (  71->  97)    0.04 (  71-> 101)    0.02 (  57->  98)
 410   9.644     128.6   0.009590   0.007605  -23.361108  -19.816194     0.02 (  90-> 105)    0.02 (  77->  98)    0.01 (  76->  97)
 411   9.648     128.5   0.106645   0.088218  25.528309  23.428742     0.04 (  84->  99)    0.04 (  81->  99)    0.02 (  85->  99)
 412   9.650     128.5   0.005844   0.004862   3.967681   1.297829     0.04 (  93-> 113)    0.02 (  71-> 101)    0.02 (  90-> 105)
 413   9.656     128.4   0.031370   0.025553  -28.425591  -23.931096     0.03 (  57->  98)    0.03 (  78->  98)    0.02 (  71->  97)
 414   9.659     128.4   0.034954   0.028488  21.304935  19.871019     0.03 (  70->  97)    0.02 (  57->  97)    0.02 (  76->  97)
 415   9.665     128.3   0.026718   0.018885  -35.496677  -32.652734     0.06 (  93-> 113)    0.03 (  94-> 115)    0.02 (  94-> 119)
 416   9.677     128.1   0.001751   0.001303   2.999049   1.834610     0.16 (  93-> 113)    0.02 (  93-> 112)    0.02 (  93-> 111)
 417   9.682     128.1   0.017269   0.014293  -15.942995  -14.179659     0.03 (  90-> 105)    0.03 (  73-> 108)    0.02 (  89-> 105)
 418   9.685     128.0   0.027429   0.023608  -2.424009  -1.963740     0.02 (  76->  97)    0.02 (  76-> 116)    0.01 (  74-> 105)
 419   9.691     127.9   0.016319   0.013695  -25.782913  -24.471308     0.07 (  96-> 126)    0.04 (  96-> 122)    0.04 (  96-> 127)
 420   9.698     127.9   0.018057   0.013607  -35.033698  -30.475111     0.09 (  86-> 100)    0.03 (  86-> 101)    0.03 (  87-> 101)
 421   9.701     127.8   0.001687   0.001491   4.635728   3.146664     0.09 (  86-> 100)    0.03 (  87-> 101)    0.02 (  79-> 100)
 422   9.703     127.8   0.013787   0.012623  -19.375583  -18.019383     0.09 (  93-> 113)    0.04 (  76->  97)    0.02 (  93-> 114)
 423   9.706     127.7   0.017991   0.015044  15.894628  15.746020     0.02 (  87-> 101)    0.02 (  86-> 110)    0.02 (  93-> 113)
 424   9.713     127.7   0.010332   0.007850   8.071200   9.032611     0.04 (  93-> 113)    0.04 (  96-> 127)    0.02 (  87-> 101)
 425   9.716     127.6   0.072475   0.060057  113.626370  104.288430     0.04 (  93-> 114)    0.03 (  93-> 115)    0.02 (  96-> 153)
 426   9.720     127.5   0.003475   0.002792   3.762384   3.766188     0.03 (  85-> 110)    0.03 (  95-> 145)    0.02 (  93-> 113)
 427   9.729     127.4   0.046815   0.038499  16.485605  18.159419     0.07 (  66->  99)    0.02 (  46->  97)    0.02 (  82->  99)
 428   9.734     127.4   0.067133   0.055159  -114.691573  -103.608063     0.03 (  76->  97)    0.02 (  85-> 110)    0.02 (  66->  99)
 429   9.739     127.3   0.001967   0.001649   0.927478  -0.787474     0.15 (  87-> 101)    0.06 (  84-> 101)    0.04 (  88-> 101)
 430   9.742     127.3   0.013879   0.009541  -36.978639  -29.721949     0.03 (  87-> 101)    0.01 (  86-> 110)    0.01 (  86-> 101)
 431   9.746     127.2   0.030030   0.024971   2.933370   2.800018     0.06 (  76->  97)    0.04 (  85-> 102)    0.03 (  90-> 103)
 432   9.749     127.2   0.044694   0.038217  64.655344  63.386304     0.02 (  85-> 100)    0.02 (  93-> 114)    0.02 (  95-> 121)
 433   9.753     127.1   0.011472   0.008837  37.456943  31.876288     0.02 (  96-> 144)    0.02 (  91-> 111)    0.01 (  73-> 108)
 434   9.759     127.0   0.136360   0.111228  -4.215463  -3.381810     0.06 (  76->  97)    0.02 (  74->  97)    0.02 (  96-> 153)
 435   9.766     127.0   0.071549   0.058873  20.183118  18.254508     0.02 (  93-> 115)    0.02 (  73-> 108)    0.02 (  93-> 117)
 436   9.774     126.9   0.118332   0.092339  -81.715073  -82.648306     0.02 (  73-> 111)    0.02 (  73-> 108)    0.02 (  77-> 117)
 437   9.780     126.8   0.023832   0.019450  -11.357764  -10.511865     0.02 (  93-> 113)    0.02 (  76->  97)    0.02 (  90-> 103)
 438   9.789     126.7   0.058512   0.048866  -122.050282  -113.223765     0.02 (  95-> 147)    0.02 (  85-> 110)    0.02 (  93-> 147)
 439   9.791     126.6   0.037365   0.030849  50.234366  44.813605     0.12 (  93-> 115)    0.06 (  93-> 117)    0.04 (  93-> 114)
 440   9.795     126.6   0.039230   0.029689  -46.126762  -38.149765     0.02 (  96-> 126)    0.01 (  80->  98)    0.01 (  92-> 120)
 441   9.802     126.5   0.034168   0.027933  80.296105  73.000771     0.02 (  93-> 145)    0.02 (  93-> 143)    0.02 (  66->  99)
 442   9.807     126.4   0.032754   0.027726  -28.453340  -27.590723     0.05 (  66->  99)    0.02 (  76->  97)    0.02 (  73-> 108)
 443   9.819     126.3   0.018679   0.013440  -25.396024  -24.831049     0.05 (  69-> 105)    0.03 (  85-> 100)    0.02 (  66->  99)
 444   9.827     126.2   0.012665   0.010692  -1.736022  -1.341470     0.26 (  85-> 100)    0.02 (  83-> 100)    0.02 (  94-> 119)
 445   9.834     126.1   0.021109   0.016624  37.030876  31.743636     0.03 (  90-> 107)    0.02 (  69-> 105)    0.02 (  82-> 105)
 446   9.835     126.1   0.006456   0.007066  -22.361474  -22.522664     0.13 (  80->  98)    0.10 (  85-> 100)    0.06 (  79->  98)
 447   9.841     126.0   0.007814   0.007064   7.619953  10.300689     0.12 (  80->  98)    0.06 (  79->  98)    0.03 (  78->  98)
 448   9.846     125.9   0.044271   0.036272   3.306387   6.295923     0.03 (  75->  97)    0.01 (  86-> 105)    0.01 (  96-> 126)
 449   9.848     125.9   0.045006   0.037134   6.319175   7.364530     0.10 (  85-> 100)    0.02 (  75->  97)    0.02 (  85-> 102)
 450   9.852     125.8   0.041903   0.036660  -63.112393  -59.175313     0.03 (  80->  98)    0.02 (  85-> 100)    0.02 (  82-> 100)
 451   9.864     125.7   0.023798   0.018918  13.341516  11.056019     0.02 (  93-> 119)    0.02 (  93-> 116)    0.01 (  93-> 115)
 452   9.871     125.6   0.020375   0.016132  -47.574478  -42.699419     0.04 (  96-> 126)    0.03 (  84->  99)    0.02 (  87-> 111)
 453   9.879     125.5   0.027449   0.021310  -34.913275  -28.957611     0.04 (  69-> 105)    0.03 (  93-> 119)    0.02 (  93-> 120)
 454   9.881     125.5   0.014916   0.013838   3.861181   3.012765     0.02 (  93-> 119)    0.02 (  88-> 134)    0.02 (  82-> 100)
 455   9.887     125.4   0.010799   0.009548  -13.478862  -11.891239     0.02 (  96-> 126)    0.02 (  95-> 124)    0.02 (  91-> 129)
 456   9.894     125.3   0.038109   0.033916  10.989015  10.985569     0.03 (  76-> 105)    0.03 (  69-> 105)    0.02 (  76-> 104)
 457   9.897     125.3   0.039023   0.030935  -0.790902  -1.509593     0.09 (  96-> 126)    0.04 (  82-> 100)    0.02 (  96-> 129)
 458   9.901     125.2   0.001699   0.001533  -11.137444  -9.942487     0.03 (  83-> 100)    0.03 (  82-> 100)    0.02 (  88-> 104)
 459   9.908     125.1   0.010958   0.009091  -8.892078  -8.356770     0.04 (  88-> 104)    0.02 (  61-> 102)    0.02 (  88-> 105)
 460   9.916     125.0   0.010324   0.007349  47.819823  39.894341     0.02 (  87-> 111)    0.02 (  93-> 120)    0.02 (  95-> 121)
 461   9.919     125.0   0.061188   0.048215  33.893249  28.730921     0.03 (  88-> 104)    0.03 (  96-> 130)    0.02 (  76-> 105)
 462   9.922     125.0   0.011990   0.010375  27.908999  25.562737     0.03 (  91-> 114)    0.02 (  96-> 130)    0.02 (  84->  99)
 463   9.928     124.9   0.005626   0.004119  -30.905271  -26.866727     0.02 (  94-> 118)    0.02 (  96-> 158)    0.02 (  96-> 126)
 464   9.930     124.9   0.070373   0.061157  38.417450  36.622552     0.08 (  96-> 126)    0.07 (  96-> 129)    0.03 (  94-> 118)
 465   9.936     124.8   0.026158   0.020646  -9.830878  -7.629077     0.05 (  88-> 104)    0.04 (  89-> 104)    0.03 (  88-> 105)
 466   9.939     124.7   0.008447   0.006715  -10.125514  -10.126586     0.18 (  94-> 118)    0.07 (  94-> 119)    0.02 (  91-> 118)
 467   9.943     124.7   0.023439   0.021056   0.590328   0.456783     0.12 (  94-> 118)    0.03 (  91-> 113)    0.03 (  94-> 119)
 468   9.947     124.6   0.046820   0.037501  35.860166  32.696247     0.05 (  96-> 129)    0.04 (  96-> 130)    0.04 (  96-> 126)
 469   9.953     124.6   0.040539   0.032918   7.382600   1.216085     0.02 (  75->  97)    0.01 (  91-> 115)    0.01 (  92-> 114)
 470   9.955     124.5   0.002220   0.002452  -8.159616  -6.989371     0.02 (  91-> 113)    0.01 (  93-> 116)    0.01 (  93-> 147)
 471   9.963     124.4   0.021251   0.015943  72.267132  61.523383     0.05 (  69-> 105)    0.02 (  75->  97)    0.02 (  69-> 104)
 472   9.963     124.4   0.009979   0.008262  16.897297  15.566678     0.02 (  96-> 129)    0.01 (  66->  98)    0.01 (  96-> 152)
 473   9.971     124.3   0.031440   0.024447   7.823225   8.447340     0.03 (  88-> 104)    0.03 (  69-> 105)    0.02 (  66->  99)
 474   9.974     124.3   0.025027   0.019199  -23.730287  -20.146664     0.02 (  96-> 130)    0.02 (  86-> 130)    0.02 (  90-> 107)
 475   9.976     124.3   0.026939   0.020837  -33.199142  -28.533851     0.05 (  93-> 116)    0.03 (  69-> 105)    0.02 (  92-> 115)
 476   9.983     124.2   0.010049   0.008937  20.884781  19.128081     0.03 (  92-> 114)    0.02 (  92-> 115)    0.01 (  89-> 107)
 477   9.984     124.2   0.014092   0.011770  -19.922339  -19.899414     0.06 (  91-> 113)    0.02 (  92-> 113)    0.01 (  88-> 111)
 478   9.989     124.1   0.013010   0.011001  -16.658482  -14.062202     0.21 (  93-> 116)    0.11 (  93-> 117)    0.01 (  77-> 116)
 479   9.993     124.1   0.015773   0.012350  -44.202156  -40.335853     0.06 (  93-> 116)    0.05 (  93-> 117)    0.02 (  93-> 147)

sTD-DFT done

Total run time:      146.242 sec

           *** ORCA-CIS/TD-DFT FINISHED WITHOUT ERROR ***


-------------------------------------------------------------------------------
                          DFT DISPERSION CORRECTION                            
                                                                               
                              DFTD3 V3.1  Rev 1                                
                              USING zero damping                               
-------------------------------------------------------------------------------
The omegaB97X-D3 functional is recognized. Fit by Chai et al.
Active option DFTDOPT                   ...         3   

molecular C6(AA) [au] = 82064.667749 


            DFT-D V3
 parameters
 s6 scaling factor         :     1.0000 
 rs6 scaling factor        :     1.2810 
 s8 scaling factor         :     1.0000 
 rs8 scaling factor        :     1.0940 
 Damping factor alpha6     :    14.0000 
 Damping factor alpha8     :    16.0000 
 ad hoc parameters k1-k3   :    16.0000     1.3333    -4.0000 

 Edisp/kcal,au: -16.816429126852  -0.026798682774 
 E6   /kcal   :  -7.641142669 
 E8   /kcal   :  -9.175286458 
 % E8         :  54.561443388 

-------------------------   ----------------
Dispersion correction           -0.026798683
-------------------------   ----------------


-------------------------   --------------------
FINAL SINGLE POINT ENERGY     -5221.065524541306
-------------------------   --------------------


                            ***************************************
                            *     ORCA property calculations      *
                            ***************************************

                                    ---------------------
                                    Active property flags
                                    ---------------------
   (+) Dipole Moment
   (+) Quadrupole Moment


------------------------------------------------------------------------------
                       ORCA ELECTRIC PROPERTIES CALCULATION
------------------------------------------------------------------------------

Dipole Moment Calculation                       ... on
Quadrupole Moment Calculation                   ... on
Polarizability Calculation                      ... off
GBWName                                         ... total_job2.gbw
Electron density file                           ... total_job2.scfp.tmp

-------------
DIPOLE MOMENT
-------------
                                X             Y             Z
Electronic contribution:     55.42841       9.75238       7.90999
Nuclear contribution   :    -56.68477     -10.97859      -7.50073
                        -----------------------------------------
Total Dipole Moment    :     -1.25636      -1.22620       0.40926
                        -----------------------------------------
Magnitude (a.u.)       :      1.80264
Magnitude (Debye)      :      4.58195


------------------------
QUADRUPOLE MOMENT (A.U.)
------------------------

                XX           YY           ZZ           XY           XZ           YZ
  NUC     53474.51725   2550.32880   9345.86478   4611.66804  -7319.81166    480.87330
  EL     -53637.39797  -2773.43801  -9547.98442  -4610.75056   7316.33717   -476.89171
  TOT      -162.88072   -223.10920   -202.11964      0.91748     -3.47448      3.98159

--------------------------------------------------------------------------
[[45324,1],3]: A high-performance Open MPI point-to-point messaging module
was unable to find any relevant network interfaces:

Module: OpenFabrics (openib)
  Host: cx1-136-17-1

Another transport will be used instead, although this may result in
lower performance.
--------------------------------------------------------------------------

Timings for individual modules:

Sum of individual times         ...      455.777 sec (=   7.596 min)
GTO integral calculation        ...       17.985 sec (=   0.300 min)   3.9 %
SCF iterations                  ...      276.341 sec (=   4.606 min)  60.6 %
CIS module                      ...      161.451 sec (=   2.691 min)  35.4 %



                             ****ORCA TERMINATED NORMALLY****
TOTAL RUN TIME: 0 days 0 hours 25 minutes 45 seconds 236 msec
