   42
Geometry Step: 976
    C     -4.34667710     -2.80511181      0.56354553      4.11508164
    C     -3.63794076     -1.65362566      0.23135755      4.08024902
    C     -4.34553870     -0.50914506     -0.18359631      4.03051022
    C     -5.76636692     -0.57434046     -0.23595961      3.86707316
    C     -6.48266473     -1.73579922      0.09156306      4.16468025
    C     -5.75020992     -2.85054239      0.49106874      4.06692325
    C     -3.97832871      0.84329191     -0.57344485      4.04173116
    C     -5.20555166      1.52760775     -0.82175600      3.86856446
    N     -6.26117795      0.65613352     -0.63103116      5.17447476
    C     -5.26999672      2.88256481     -1.17814030      4.15887581
    C     -4.06626936      3.57782442     -1.27282191      4.07247753
    C     -2.84543090      2.93535035     -1.03327302      4.13498795
    C     -2.76166343      1.56928163     -0.70054549      3.97790457
    H     -1.92530745      3.50675653     -1.13274307      0.91525808
    H     -7.24079250      0.89270598     -0.73001349      0.78406831
    H     -4.07020039      4.63083920     -1.53891321      0.91624104
    H     -2.55355158     -1.64586880      0.29037565      0.89698801
    H     -7.56783785     -1.76044079      0.03970080      0.91797824
    H     -6.27005331     -3.76827931      0.75297291      0.92170307
    H     -3.80506734     -3.69115131      0.88323688      0.91942938
    S      3.25495184     -1.12604288     -0.02679644      6.04075557
    C      4.67172763     -0.15981219      0.45494680      3.82234823
    N      4.37885448      1.11886188      0.65867522      5.15190170
    N      3.06643306      1.42324715      0.45861497      5.17733096
    C      2.33064793      0.37833670      0.09670795      3.82725052
    C      0.91332945      0.44462470     -0.17260876      3.83809406
    N      0.18447554     -0.60219335     -0.53939270      5.17895102
    N     -1.13274161     -0.30011722     -0.73880558      5.18327628
    C     -1.43414655      0.97254621     -0.52419074      3.80570531
    S     -0.01833250      1.94180716     -0.04719071      6.03438056
    N      9.47431032      0.20754735      1.49247391      5.23928590
    C      8.44391358     -0.53949900      1.13247993      3.85936178
    C      7.13166168      0.10873239      1.00287016      3.82458636
    N      7.05693562      1.40265186      1.25392224      5.22189250
    S      8.79855750      1.94515108      1.71432092      5.83727793
    C      6.00610007     -0.72460611      0.60609199      4.04496274
    C      6.26114217     -2.06816170      0.38095133      3.94587185
    N      7.49391090     -2.67292245      0.50364631      5.26426997
    C      8.54230944     -1.95767925      0.86068905      3.91446613
    H      5.43939734     -2.72670440      0.08087495      0.92615306
    H     -6.22239726      3.37162448     -1.36213403      0.91435838
    H      9.50968663     -2.46524369      0.95017052      0.92231921
