
                                 *****************
                                 * O   R   C   A *
                                 *****************

           --- An Ab Initio, DFT and Semiempirical electronic structure package ---

                  #######################################################
                  #                        -***-                        #
                  #  Department of molecular theory and spectroscopy    #
                  #              Directorship: Frank Neese              #
                  # Max Planck Institute for Chemical Energy Conversion #
                  #                  D-45470 Muelheim/Ruhr              #
                  #                       Germany                       #
                  #                                                     #
                  #                  All rights reserved                #
                  #                        -***-                        #
                  #######################################################


                         Program Version 4.0.0 -  RELEASE  -


 With contributions from (in alphabetic order):
   Daniel Aravena         : Magnetic Properties
   Michael Atanasov       : Ab Initio Ligand Field Theory
   Ute Becker             : Parallelization
   Martin Brehm           : Molecular dynamics
   Dmytro Bykov           : SCF Hessian
   Vijay G. Chilkuri      : MRCI spin determinant printing
   Dipayan Datta          : RHF DLPNO-CCSD density
   Achintya Kumar Dutta   : EOM-CC, STEOM-CC
   Dmitry Ganyushin       : Spin-Orbit,Spin-Spin,Magnetic field MRCI
   Yang Guo               : DLPNO-NEVPT2, CIM, IAO-localization
   Andreas Hansen         : Spin unrestricted coupled pair/coupled cluster methods
   Lee Huntington         : MR-EOM, pCC
   Robert Izsak           : Overlap fitted RIJCOSX, COSX-SCS-MP3, EOM
   Christian Kollmar      : KDIIS, OOCD, Brueckner-CCSD(T), CCSD density
   Simone Kossmann        : Meta GGA functionals, TD-DFT gradient, OOMP2, MP2 Hessian
   Martin Krupicka        : AUTO-CI
   Dagmar Lenk            : GEPOL surface
   Dimitrios Liakos       : Extrapolation schemes; parallel MDCI
   Dimitrios Manganas     : ROCIS; embedding schemes
   Dimitrios Pantazis     : SARC Basis sets
   Taras Petrenko         : DFT Hessian,TD-DFT gradient, ASA, ECA, R-Raman, ABS, FL, XAS/XES, NRVS
   Peter Pinski           : DLPNO-MP2
   Christoph Reimann      : Effective Core Potentials
   Marius Retegan         : Local ZFS, SOC
   Christoph Riplinger    : Optimizer, TS searches, QM/MM, DLPNO-CCSD(T), (RO)-DLPNO pert. Triples
   Tobias Risthaus        : Range-separated hybrids, TD-DFT gradient, RPA, STAB
   Michael Roemelt        : Restricted open shell CIS
   Masaaki Saitow         : Open-shell DLPNO
   Barbara Sandhoefer     : DKH picture change effects
   Kantharuban Sivalingam : CASSCF convergence, NEVPT2, FIC-MRCI
   Georgi Stoychev        : AutoAux
   Boris Wezisla          : Elementary symmetry handling
   Frank Wennmohs         : Technical directorship


 We gratefully acknowledge several colleagues who have allowed us to
 interface, adapt or use parts of their codes:
   Stefan Grimme, W. Hujo, H. Kruse,             : VdW corrections, initial TS optimization,
                  C. Bannwarth                     DFT functionals, gCP, sTDA/sTD-DF
   Ed Valeev                                     : LibInt (2-el integral package), F12 methods
   Garnet Chan, S. Sharma, J. Yang, R. Olivares  : DMRG
   Ulf Ekstrom                                   : XCFun DFT Library
   Mihaly Kallay                                 : mrcc  (arbitrary order and MRCC methods)
   Jiri Pittner, Ondrej Demel                    : Mk-CCSD
   Frank Weinhold                                : gennbo (NPA and NBO analysis)
   Christopher J. Cramer and Donald G. Truhlar   : smd solvation model


 Your calculation uses the libint2 library for the computation of 2-el integrals
 For citations please refer to: http://libint.valeyev.net

 This ORCA versions uses:
   CBLAS   interface :  Fast vector & matrix operations
   LAPACKE interface :  Fast linear algebra routines
   SCALAPACK package :  Parallel linear algebra routines


Your calculation utilizes the atom-pairwise dispersion correction
with the zero-damping scheme (D30)
Cite in your paper:
S.Grimme, J.Antony, S.Ehrlich and H.Krieg, J.Chem.Phys., 132, (2010), 154104 
   

XCFun DFT library Copyright 2009-2010 Ulf Ekstrom and contributors.
See http://admol.org/xcfun for more information. This is free soft-
ware; see the source code for copying conditions. There is ABSOLUTELY
NO WARRANTY; not even for MERCHANTABILITY or FITNESS FOR A PARTICULAR
PURPOSE. For details see the documentation. Scientific users of this 
library should cite U. Ekstrom, L. Visscher, R. Bast, A. J. Thorvald-
sen and K. Ruud; J.Chem.Theor.Comp. 2010, DOI: 10.1021/ct100117s
XCFun Version 0.99 
Your calculation utilizes the basis: def2-TZVP
   F. Weigend and R. Ahlrichs, Phys. Chem. Chem. Phys. 7, 3297 (2005).

Your calculation utilizes the auxiliary basis: def2/J
   F. Weigend, Phys. Chem. Chem. Phys. 8, 1057 (2006).

================================================================================
                                        WARNINGS
                       Please study these warnings very carefully!
================================================================================

Warning: TCutStore was < 0. Adjusted to Thresh (uncritical)
INFO   : Checking CIS options ...

WARNING: CIS/ROCIS methods need fully converged wavefunctions
  ===> : Setting SCFConvForced true
         You can overwrite this default with %scf ConvForced false 


INFO   : the flag for use of LIBINT has been found!

Your calculation utilizes the atom-pairwise dispersion correction
with the zero-damping scheme (D30)
Cite in your paper:
S.Grimme, J.Antony, S.Ehrlich and H.Krieg, J.Chem.Phys., 132, (2010), 154104 
   

XCFun DFT library Copyright 2009-2010 Ulf Ekstrom and contributors.
See http://admol.org/xcfun for more information. This is free soft-
ware; see the source code for copying conditions. There is ABSOLUTELY
NO WARRANTY; not even for MERCHANTABILITY or FITNESS FOR A PARTICULAR
PURPOSE. For details see the documentation. Scientific users of this 
library should cite U. Ekstrom, L. Visscher, R. Bast, A. J. Thorvald-
sen and K. Ruud; J.Chem.Theor.Comp. 2010, DOI: 10.1021/ct100117s
XCFun Version 0.99 
Your calculation utilizes the basis: def2-TZVP
   F. Weigend and R. Ahlrichs, Phys. Chem. Chem. Phys. 7, 3297 (2005).

Your calculation utilizes the auxiliary basis: def2/J
   F. Weigend, Phys. Chem. Chem. Phys. 8, 1057 (2006).

================================================================================
                                        WARNINGS
                       Please study these warnings very carefully!
================================================================================

INFO   : Checking CIS options ...

INFO   : the flag for use of LIBINT has been found!

================================================================================
                                       INPUT FILE
================================================================================
NAME = total.inp
|  1> # 
|  2> !wB97X-D3 def2-TZVP def2/J RIJCOSX Grid5 FinalGrid6 TightSCF
|  3> %pal 
|  4>  nprocs 24
|  5> end
|  6> %tddft
|  7>   Mode sTDDFT
|  8>   nroots 2
|  9>   Ethresh 10.0
| 10>   maxcore 5000
| 11>   triplets true
| 12> end
| 13> * xyz 0 1 
| 14> C -2.65109512 2.73787022 -0.49963197
| 15> C -2.49816940 1.35542098 -0.42552759
| 16> C -3.61280520 0.55271322 -0.11459228
| 17> C -4.86833748 1.19708808 0.07720356
| 18> C -5.02553832 2.58973344 0.00807298
| 19> C -3.89576506 3.35197745 -0.27748763
| 20> C -3.85539032 -0.87698478 0.02479749
| 21> C -5.25519083 -1.01468406 0.26020946
| 22> N -5.83753818 0.23819828 0.30868151
| 23> C -5.89639178 -2.25561655 0.39291009
| 24> C -5.10657518 -3.39745598 0.27551215
| 25> C -3.72663892 -3.29774784 0.06313411
| 26> C -3.06297957 -2.05846405 -0.04560234
| 27> H -3.13843699 -4.20973543 0.00725971
| 28> H -6.82325986 0.42022668 0.45185197
| 29> H -5.56182640 -4.37993557 0.36280019
| 30> H -1.52475216 0.91731185 -0.61835561
| 31> H -5.99583732 3.05349164 0.16436243
| 32> H -3.97833669 4.43366885 -0.33996709
| 33> H -1.78985602 3.35629004 -0.73748806
| 34> O 2.70144827 -0.49604042 0.08763370
| 35> C 1.38810046 -0.23797774 0.26376611
| 36> C 1.22838953 1.06722923 0.71888576
| 37> C 2.52880548 1.61236356 0.81781098
| 38> C 3.40878680 0.61271635 0.41837096
| 39> C 0.43062115 -1.27312276 -0.03332523
| 40> C 0.56255938 -2.57228019 -0.50800813
| 41> C -0.75076163 -3.09175942 -0.60251549
| 42> C -1.60981682 -2.07814515 -0.19300443
| 43> O -0.88016445 -0.99883585 0.15180518
| 44> H -1.03054811 -4.07633425 -0.94852645
| 45> H 1.48623011 -3.07609127 -0.75282996
| 46> H 2.79413056 2.60892362 1.13995892
| 47> H 0.29218330 1.55576372 0.94826032
| 48> N 7.59126753 2.84820157 0.89667574
| 49> C 7.09896383 1.65230143 0.52343671
| 50> C 5.67351529 1.70842706 0.63848967
| 51> N 5.34306861 2.93527060 1.07759886
| 52> O 6.51386248 3.59902027 1.22435106
| 53> C 4.85238286 0.57399568 0.30813963
| 54> C 5.53439360 -0.56185063 -0.12392745
| 55> C 6.95218454 -0.60817991 -0.23510221
| 56> C 7.75477042 0.46842094 0.07686311
| 57> H 7.40686855 -1.53337220 -0.58021012
| 58> H 4.96357294 -1.44835003 -0.38683049
| 59> H -6.96604534 -2.32073414 0.57013802
| 60> H 8.83575149 0.41707342 -0.01334787
| 61> *
| 62> $new_job
| 63> # 
| 64> !wB97X-D3 def2-TZVP def2/J RIJCOSX Grid5 FinalGrid6 TightSCF
| 65> %pal 
| 66>  nprocs 24
| 67> end
| 68> %elprop
| 69>    dipole     true
| 70>    quadrupole true
| 71> end
| 72> %tddft
| 73>   Mode sTDDFT
| 74>   nroots 2
| 75>   Ethresh 10.0
| 76>   maxcore 5000
| 77> end
| 78> * xyz 0 1 
| 79> C -2.65109512 2.73787022 -0.49963197
| 80> C -2.49816940 1.35542098 -0.42552759
| 81> C -3.61280520 0.55271322 -0.11459228
| 82> C -4.86833748 1.19708808 0.07720356
| 83> C -5.02553832 2.58973344 0.00807298
| 84> C -3.89576506 3.35197745 -0.27748763
| 85> C -3.85539032 -0.87698478 0.02479749
| 86> C -5.25519083 -1.01468406 0.26020946
| 87> N -5.83753818 0.23819828 0.30868151
| 88> C -5.89639178 -2.25561655 0.39291009
| 89> C -5.10657518 -3.39745598 0.27551215
| 90> C -3.72663892 -3.29774784 0.06313411
| 91> C -3.06297957 -2.05846405 -0.04560234
| 92> H -3.13843699 -4.20973543 0.00725971
| 93> H -6.82325986 0.42022668 0.45185197
| 94> H -5.56182640 -4.37993557 0.36280019
| 95> H -1.52475216 0.91731185 -0.61835561
| 96> H -5.99583732 3.05349164 0.16436243
| 97> H -3.97833669 4.43366885 -0.33996709
| 98> H -1.78985602 3.35629004 -0.73748806
| 99> O 2.70144827 -0.49604042 0.08763370
|100> C 1.38810046 -0.23797774 0.26376611
|101> C 1.22838953 1.06722923 0.71888576
|102> C 2.52880548 1.61236356 0.81781098
|103> C 3.40878680 0.61271635 0.41837096
|104> C 0.43062115 -1.27312276 -0.03332523
|105> C 0.56255938 -2.57228019 -0.50800813
|106> C -0.75076163 -3.09175942 -0.60251549
|107> C -1.60981682 -2.07814515 -0.19300443
|108> O -0.88016445 -0.99883585 0.15180518
|109> H -1.03054811 -4.07633425 -0.94852645
|110> H 1.48623011 -3.07609127 -0.75282996
|111> H 2.79413056 2.60892362 1.13995892
|112> H 0.29218330 1.55576372 0.94826032
|113> N 7.59126753 2.84820157 0.89667574
|114> C 7.09896383 1.65230143 0.52343671
|115> C 5.67351529 1.70842706 0.63848967
|116> N 5.34306861 2.93527060 1.07759886
|117> O 6.51386248 3.59902027 1.22435106
|118> C 4.85238286 0.57399568 0.30813963
|119> C 5.53439360 -0.56185063 -0.12392745
|120> C 6.95218454 -0.60817991 -0.23510221
|121> C 7.75477042 0.46842094 0.07686311
|122> H 7.40686855 -1.53337220 -0.58021012
|123> H 4.96357294 -1.44835003 -0.38683049
|124> H -6.96604534 -2.32073414 0.57013802
|125> H 8.83575149 0.41707342 -0.01334787
|126> *
|127> 
|128>                          ****END OF INPUT****
================================================================================


                 $$$$$$$$$$$$$$$$$$$$$$$$$$$$$$$$$$$$$$$$$$$$$$ 
                 $ THERE ARE  2 JOBS TO BE PROCESSED THIS RUN $
                 $$$$$$$$$$$$$$$$$$$$$$$$$$$$$$$$$$$$$$$$$$$$$$ 




                 $$$$$$$$$$$$$$$$  JOB NUMBER  1 $$$$$$$$$$$$$$


                       ****************************
                       * Single Point Calculation *
                       ****************************

---------------------------------
CARTESIAN COORDINATES (ANGSTROEM)
---------------------------------
  C     -2.651095    2.737870   -0.499632
  C     -2.498169    1.355421   -0.425528
  C     -3.612805    0.552713   -0.114592
  C     -4.868337    1.197088    0.077204
  C     -5.025538    2.589733    0.008073
  C     -3.895765    3.351977   -0.277488
  C     -3.855390   -0.876985    0.024797
  C     -5.255191   -1.014684    0.260209
  N     -5.837538    0.238198    0.308682
  C     -5.896392   -2.255617    0.392910
  C     -5.106575   -3.397456    0.275512
  C     -3.726639   -3.297748    0.063134
  C     -3.062980   -2.058464   -0.045602
  H     -3.138437   -4.209735    0.007260
  H     -6.823260    0.420227    0.451852
  H     -5.561826   -4.379936    0.362800
  H     -1.524752    0.917312   -0.618356
  H     -5.995837    3.053492    0.164362
  H     -3.978337    4.433669   -0.339967
  H     -1.789856    3.356290   -0.737488
  O      2.701448   -0.496040    0.087634
  C      1.388100   -0.237978    0.263766
  C      1.228390    1.067229    0.718886
  C      2.528805    1.612364    0.817811
  C      3.408787    0.612716    0.418371
  C      0.430621   -1.273123   -0.033325
  C      0.562559   -2.572280   -0.508008
  C     -0.750762   -3.091759   -0.602515
  C     -1.609817   -2.078145   -0.193004
  O     -0.880164   -0.998836    0.151805
  H     -1.030548   -4.076334   -0.948526
  H      1.486230   -3.076091   -0.752830
  H      2.794131    2.608924    1.139959
  H      0.292183    1.555764    0.948260
  N      7.591268    2.848202    0.896676
  C      7.098964    1.652301    0.523437
  C      5.673515    1.708427    0.638490
  N      5.343069    2.935271    1.077599
  O      6.513862    3.599020    1.224351
  C      4.852383    0.573996    0.308140
  C      5.534394   -0.561851   -0.123927
  C      6.952185   -0.608180   -0.235102
  C      7.754770    0.468421    0.076863
  H      7.406869   -1.533372   -0.580210
  H      4.963573   -1.448350   -0.386830
  H     -6.966045   -2.320734    0.570138
  H      8.835751    0.417073   -0.013348

----------------------------
CARTESIAN COORDINATES (A.U.)
----------------------------
  NO LB      ZA    FRAG     MASS         X           Y           Z
   0 C     6.0000    0    12.011   -5.009844    5.173825   -0.944168
   1 C     6.0000    0    12.011   -4.720856    2.561374   -0.804131
   2 C     6.0000    0    12.011   -6.827212    1.044477   -0.216548
   3 C     6.0000    0    12.011   -9.199825    2.262169    0.145894
   4 C     6.0000    0    12.011   -9.496891    4.893887    0.015256
   5 C     6.0000    0    12.011   -7.361929    6.334319   -0.524376
   6 C     6.0000    0    12.011   -7.285632   -1.657261    0.046860
   7 C     6.0000    0    12.011   -9.930871   -1.917475    0.491725
   8 N     7.0000    0    14.007  -11.031348    0.450130    0.583324
   9 C     6.0000    0    12.011  -11.142566   -4.262498    0.742492
  10 C     6.0000    0    12.011   -9.650029   -6.420261    0.520643
  11 C     6.0000    0    12.011   -7.042327   -6.231840    0.119306
  12 C     6.0000    0    12.011   -5.788193   -3.889933   -0.086176
  13 H     1.0000    0     1.008   -5.930786   -7.955247    0.013719
  14 H     1.0000    0     1.008  -12.894092    0.794113    0.853876
  15 H     1.0000    0     1.008  -10.510329   -8.276879    0.685593
  16 H     1.0000    0     1.008   -2.881364    1.733468   -1.168523
  17 H     1.0000    0     1.008  -11.330490    5.770263    0.310600
  18 H     1.0000    0     1.008   -7.517967    8.378420   -0.642445
  19 H     1.0000    0     1.008   -3.382338    6.342469   -1.393650
  20 O     8.0000    0    15.999    5.104997   -0.937381    0.165604
  21 C     6.0000    0    12.011    2.623130   -0.449713    0.498446
  22 C     6.0000    0    12.011    2.321320    2.016771    1.358497
  23 C     6.0000    0    12.011    4.778750    3.046926    1.545439
  24 C     6.0000    0    12.011    6.441674    1.157866    0.790607
  25 C     6.0000    0    12.011    0.813756   -2.405853   -0.062976
  26 C     6.0000    0    12.011    1.063083   -4.860905   -0.959996
  27 C     6.0000    0    12.011   -1.418734   -5.842579   -1.138589
  28 C     6.0000    0    12.011   -3.042113   -3.927125   -0.364726
  29 O     8.0000    0    15.999   -1.663270   -1.887526    0.286870
  30 H     1.0000    0     1.008   -1.947454   -7.703155   -1.792455
  31 H     1.0000    0     1.008    2.808568   -5.812970   -1.422642
  32 H     1.0000    0     1.008    5.280142    4.930151    2.154210
  33 H     1.0000    0     1.008    0.552146    2.939967    1.791952
  34 N     7.0000    0    14.007   14.345417    5.382321    1.694472
  35 C     6.0000    0    12.011   13.415097    3.122397    0.989152
  36 C     6.0000    0    12.011   10.721390    3.228459    1.206571
  37 N     7.0000    0    14.007   10.096936    5.546858    2.036367
  38 O     8.0000    0    15.999   12.309416    6.801163    2.313688
  39 C     6.0000    0    12.011    9.169675    1.084695    0.582300
  40 C     6.0000    0    12.011   10.458488   -1.061744   -0.234189
  41 C     6.0000    0    12.011   13.137725   -1.149293   -0.444279
  42 C     6.0000    0    12.011   14.654392    0.885187    0.145250
  43 H     1.0000    0     1.008   13.996953   -2.897654   -1.096438
  44 H     1.0000    0     1.008    9.379794   -2.736985   -0.731004
  45 H     1.0000    0     1.008  -13.163918   -4.385552    1.077405
  46 H     1.0000    0     1.008   16.697151    0.788155   -0.025224

--------------------------------
INTERNAL COORDINATES (ANGSTROEM)
--------------------------------
 C      0   0   0     0.000000000000     0.00000000     0.00000000
 C      1   0   0     1.392854492095     0.00000000     0.00000000
 C      2   1   0     1.408344234060   119.37727144     0.00000000
 C      3   2   1     1.424207116456   118.00643273     1.65445161
 C      4   3   2     1.403193586045   122.76340936   358.05480137
 C      5   4   3     1.392461278376   117.54854130     0.80489012
 C      3   2   1     1.456816192809   135.41997055   178.55689484
 C      7   3   2     1.426121087120   105.90219431   184.27825521
 N      8   7   3     1.382458727618   109.37493955   358.16425329
 C      8   7   3     1.403090004319   123.33723475   177.21941906
 C     10   8   7     1.393337655364   117.24348007   359.52938537
 C     11  10   8     1.399739342420   120.87994674     1.35632385
 C     12  11  10     1.409997042748   122.57017078   359.88254143
 H     12  11  10     1.086657638516   118.79353947   178.13585690
 H      9   8   7     1.012560788025   125.30670357   179.17469389
 H     11  10   8     1.086342036379   119.79045757   180.51957843
 H      2   1   3     1.084741157242   119.33624598   179.38672653
 H      5   4   3     1.086728213331   121.09656001   180.34014306
 H      6   5   4     1.086636112890   119.67338419   179.95667023
 H      1   2   3     1.086623845076   119.30737473   179.86750332
 O     17   2   1     4.511846143153   159.92806056    82.68455365
 C     21  17   2     1.350000534331    18.06148721    40.89927399
 C     22  21  17     1.391476450219   109.48991674   276.47589750
 C     23  22  21     1.413520173153   106.20313245   359.97117126
 C     21  17   2     1.356118175601   105.70089989   298.90233046
 C     22  21  17     1.441025713099   118.82847238    96.08975487
 C     26  22  21     1.389439304184   132.76580360   359.25253194
 C     27  26  22     1.415486625441   106.13230339   180.35609289
 C     28  27  26     1.390355715663   106.62183204     0.54895481
 O     29  28  27     1.347662722368   108.94722878   359.28224454
 H     28  27  26     1.080459001860   126.58901781   179.20815346
 H     27  26  22     1.080245782326   126.49141573     0.36390604
 H     24  23  22     1.080420587785   127.05032588   180.02984222
 H     23  22  21     1.080629789422   126.36436778   180.00750219
 N     25  21  17     4.766478226975   149.95259462   198.74611895
 C     35  25  21     1.346048829501    40.05393348   359.87487024
 C     36  35  25     1.431185106873   107.88703153     0.00000000
 N     37  36  35     1.344305382235   107.87102931     0.00000000
 O     35  25  21     1.353477549637    65.54163189   179.87940224
 C     37  36  35     1.438862110299   121.26644416   179.99382129
 C     40  37  36     1.393544922504   115.75436238     0.00000000
 C     41  40  37     1.422897529337   122.57576207     0.00000000
 C     42  41  40     1.378599233236   122.47812684     0.00000000
 H     42  41  40     1.087114433705   117.98634250   179.99768986
 H     41  40  37     1.086662514548   118.87287064   179.99884765
 H     10   8   7     1.086190028549   121.23089983   180.11041476
 H     43  42  41     1.085953342654   121.58653311   179.99997199

---------------------------
INTERNAL COORDINATES (A.U.)
---------------------------
 C      0   0   0     0.000000000000     0.00000000     0.00000000
 C      1   0   0     2.632113534462     0.00000000     0.00000000
 C      2   1   0     2.661384904661   119.37727144     0.00000000
 C      3   2   1     2.691361408083   118.00643273     1.65445161
 C      4   3   2     2.651651590500   122.76340936   358.05480137
 C      5   4   3     2.631370468220   117.54854130     0.80489012
 C      3   2   1     2.752983631871   135.41997055   178.55689484
 C      7   3   2     2.694978288467   105.90219431   184.27825521
 N      8   7   3     2.612468386647   109.37493955   358.16425329
 C      8   7   3     2.651455849406   123.33723475   177.21941906
 C     10   8   7     2.633026580717   117.24348007   359.52938537
 C     11  10   8     2.645124016049   120.87994674     1.35632385
 C     12  11  10     2.664508260432   122.57017078   359.88254143
 H     12  11  10     2.053485338129   118.79353947   178.13585690
 H      9   8   7     1.913462583314   125.30670357   179.17469389
 H     11  10   8     2.052888936524   119.79045757   180.51957843
 H      2   1   3     2.049863713381   119.33624598   179.38672653
 H      5   4   3     2.053618705201   121.09656001   180.34014306
 H      6   5   4     2.053444660591   119.67338419   179.95667023
 H      1   2   3     2.053421477782   119.30737473   179.86750332
 O     17   2   1     8.526153568947   159.92806056    82.68455365
 C     21  17   2     2.551131290532    18.06148721    40.89927399
 C     22  21  17     2.629509412715   109.48991674   276.47589750
 C     23  22  21     2.671166012032   106.20313245   359.97117126
 C     21  17   2     2.562691957119   105.70089989   298.90233046
 C     22  21  17     2.723143949695   118.82847238    96.08975487
 C     26  22  21     2.625659764614   132.76580360   359.25253194
 C     27  26  22     2.674882068312   106.13230339   180.35609289
 C     28  27  26     2.627391531335   106.62183204     0.54895481
 O     29  28  27     2.546713466171   108.94722878   359.28224454
 H     28  27  26     2.041771612445   126.58901781   179.20815346
 H     27  26  22     2.041368685920   126.49141573     0.36390604
 H     24  23  22     2.041699020365   127.05032588   180.02984222
 H     23  22  21     2.042094354164   126.36436778   180.00750219
 N     25  21  17     9.007338472282   149.95259462   198.74611895
 C     35  25  21     2.543663650642    40.05393348   359.87487024
 C     36  35  25     2.704547898937   107.88703153     0.00000000
 N     37  36  35     2.540369012780   107.87102931     0.00000000
 O     35  25  21     2.557701897225    65.54163189   179.87940224
 C     37  36  35     2.719055332941   121.26644416   179.99382129
 C     40  37  36     2.633418258848   115.75436238     0.00000000
 C     41  40  37     2.688886647080   122.57576207     0.00000000
 C     42  41  40     2.605174999250   122.47812684     0.00000000
 H     42  41  40     2.054348555935   117.98634250   179.99768986
 H     41  40  37     2.053494552495   118.87287064   179.99884765
 H     10   8   7     2.052601683354   121.23089983   180.11041476
 H     43  42  41     2.052154411832   121.58653311   179.99997199

---------------------
BASIS SET INFORMATION
---------------------
There are 4 groups of distinct atoms

 Group   1 Type C   : 11s6p2d1f contracted to 5s3p2d1f pattern {62111/411/11/1}
 Group   2 Type N   : 11s6p2d1f contracted to 5s3p2d1f pattern {62111/411/11/1}
 Group   3 Type H   : 5s1p contracted to 3s1p pattern {311/1}
 Group   4 Type O   : 11s6p2d1f contracted to 5s3p2d1f pattern {62111/411/11/1}

Atom   0C    basis set group =>   1
Atom   1C    basis set group =>   1
Atom   2C    basis set group =>   1
Atom   3C    basis set group =>   1
Atom   4C    basis set group =>   1
Atom   5C    basis set group =>   1
Atom   6C    basis set group =>   1
Atom   7C    basis set group =>   1
Atom   8N    basis set group =>   2
Atom   9C    basis set group =>   1
Atom  10C    basis set group =>   1
Atom  11C    basis set group =>   1
Atom  12C    basis set group =>   1
Atom  13H    basis set group =>   3
Atom  14H    basis set group =>   3
Atom  15H    basis set group =>   3
Atom  16H    basis set group =>   3
Atom  17H    basis set group =>   3
Atom  18H    basis set group =>   3
Atom  19H    basis set group =>   3
Atom  20O    basis set group =>   4
Atom  21C    basis set group =>   1
Atom  22C    basis set group =>   1
Atom  23C    basis set group =>   1
Atom  24C    basis set group =>   1
Atom  25C    basis set group =>   1
Atom  26C    basis set group =>   1
Atom  27C    basis set group =>   1
Atom  28C    basis set group =>   1
Atom  29O    basis set group =>   4
Atom  30H    basis set group =>   3
Atom  31H    basis set group =>   3
Atom  32H    basis set group =>   3
Atom  33H    basis set group =>   3
Atom  34N    basis set group =>   2
Atom  35C    basis set group =>   1
Atom  36C    basis set group =>   1
Atom  37N    basis set group =>   2
Atom  38O    basis set group =>   4
Atom  39C    basis set group =>   1
Atom  40C    basis set group =>   1
Atom  41C    basis set group =>   1
Atom  42C    basis set group =>   1
Atom  43H    basis set group =>   3
Atom  44H    basis set group =>   3
Atom  45H    basis set group =>   3
Atom  46H    basis set group =>   3
-------------------------------
AUXILIARY BASIS SET INFORMATION
-------------------------------
There are 4 groups of distinct atoms

 Group   1 Type C   : 12s5p4d2f1g contracted to 6s4p3d1f1g pattern {711111/2111/211/2/1}
 Group   2 Type N   : 12s5p4d2f1g contracted to 6s4p3d1f1g pattern {711111/2111/211/2/1}
 Group   3 Type H   : 5s2p1d contracted to 3s1p1d pattern {311/2/1}
 Group   4 Type O   : 12s5p4d2f1g contracted to 6s4p3d1f1g pattern {711111/2111/211/2/1}

Atom   0C    basis set group =>   1
Atom   1C    basis set group =>   1
Atom   2C    basis set group =>   1
Atom   3C    basis set group =>   1
Atom   4C    basis set group =>   1
Atom   5C    basis set group =>   1
Atom   6C    basis set group =>   1
Atom   7C    basis set group =>   1
Atom   8N    basis set group =>   2
Atom   9C    basis set group =>   1
Atom  10C    basis set group =>   1
Atom  11C    basis set group =>   1
Atom  12C    basis set group =>   1
Atom  13H    basis set group =>   3
Atom  14H    basis set group =>   3
Atom  15H    basis set group =>   3
Atom  16H    basis set group =>   3
Atom  17H    basis set group =>   3
Atom  18H    basis set group =>   3
Atom  19H    basis set group =>   3
Atom  20O    basis set group =>   4
Atom  21C    basis set group =>   1
Atom  22C    basis set group =>   1
Atom  23C    basis set group =>   1
Atom  24C    basis set group =>   1
Atom  25C    basis set group =>   1
Atom  26C    basis set group =>   1
Atom  27C    basis set group =>   1
Atom  28C    basis set group =>   1
Atom  29O    basis set group =>   4
Atom  30H    basis set group =>   3
Atom  31H    basis set group =>   3
Atom  32H    basis set group =>   3
Atom  33H    basis set group =>   3
Atom  34N    basis set group =>   2
Atom  35C    basis set group =>   1
Atom  36C    basis set group =>   1
Atom  37N    basis set group =>   2
Atom  38O    basis set group =>   4
Atom  39C    basis set group =>   1
Atom  40C    basis set group =>   1
Atom  41C    basis set group =>   1
Atom  42C    basis set group =>   1
Atom  43H    basis set group =>   3
Atom  44H    basis set group =>   3
Atom  45H    basis set group =>   3
Atom  46H    basis set group =>   3
-------------------------
ECP PARAMETER INFORMATION
-------------------------



--------------------------------------------------------------------------
[[6690,1],1]: A high-performance Open MPI point-to-point messaging module
was unable to find any relevant network interfaces:

Module: OpenFabrics (openib)
  Host: cx1-103-18-3

Another transport will be used instead, although this may result in
lower performance.
--------------------------------------------------------------------------


           ************************************************************
           *        Program running with 24 parallel MPI-processes    *
           *              working on a common directory               *
           ************************************************************
------------------------------------------------------------------------------
                           ORCA GTO INTEGRAL CALCULATION
                           -- RI-GTO INTEGRALS CHOSEN --
------------------------------------------------------------------------------

                         BASIS SET STATISTICS AND STARTUP INFO

Gaussian basis set:
 # of primitive gaussian shells          ...  730
 # of primitive gaussian functions       ... 1592
 # of contracted shells                  ...  412
 # of contracted basis functions         ... 1082
 Highest angular momentum                ...    3
 Maximum contraction depth               ...    6
Auxiliary gaussian basis set:
 # of primitive gaussian shells          ...  888
 # of primitive gaussian functions       ... 2480
 # of contracted shells                  ...  555
 # of contracted aux-basis functions     ... 1733
 Highest angular momentum                ...    4
 Maximum contraction depth               ...    7
Ratio of auxiliary to basis functions    ...  1.60
Integral package used                  ... LIBINT
 One Electron integrals                  
   ECP integrals                         ... done
 Ordering auxiliary basis shells         ... done
 Integral threshhold             Thresh  ...  2.500e-11
 Primitive cut-off               TCut    ...  2.500e-12
 Pre-screening matrix                    ... done
 Shell pair data                         ... 
 Ordering of the shell pairs             ... done (   0.014 sec) 47488 of 85078 pairs
 Determination of significant pairs      ... done (   0.000 sec)
 Creation of shell pair data             ... done (   0.008 sec)
 Storage of shell pair data              ... done (   0.115 sec)
 Shell pair data done in (   0.137 sec)
 Computing two index integrals           ... done
 Cholesky decomposition of the V-matrix  ... done


Timings:
 Total evaluation time                   ...   4.318 sec (  0.072 min)
 One electron matrix time                ...   1.442 sec (  0.024 min) = 33.4%
 Schwartz matrix evaluation time         ...   1.693 sec (  0.028 min) = 39.2%
 Two index repulsion integral time       ...   0.502 sec (  0.008 min) = 11.6%
 Cholesky decomposition of V             ...   0.507 sec (  0.008 min) = 11.7%
 Three index repulsion integral time     ...   0.000 sec (  0.000 min) =  0.0%

--------------------------------------------------------------------------
[[6911,1],15]: A high-performance Open MPI point-to-point messaging module
was unable to find any relevant network interfaces:

Module: OpenFabrics (openib)
  Host: cx1-103-18-3

Another transport will be used instead, although this may result in
lower performance.
--------------------------------------------------------------------------


           ************************************************************
           *        Program running with 24 parallel MPI-processes    *
           *              working on a common directory               *
           ************************************************************
-------------------------------------------------------------------------------
                                 ORCA SCF
-------------------------------------------------------------------------------

------------
SCF SETTINGS
------------
Hamiltonian:
 Density Functional     Method          .... DFT(GTOs)
 Exchange Functional    Exchange        .... WB97X-D3
 Correlation Functional Correlation     .... WB97X-D3
 Gradients option       PostSCFGGA      .... off
 Hybrid DFT is turned on
   Fraction HF Exchange ScalHFX         ....  0.195728
   Scaling of DF-GGA-X  ScalDFX         ....  0.000000
   Scaling of DF-GGA-C  ScalDFC         ....  1.000000
   Scaling of DF-LDA-C  ScalLDAC        ....  1.000000
   Perturbative correction              ....  0.000000
 Long-range corrected/Screened/Range-Separated Hybrid DFT is turned on
   Amount of maximum screened exact exchange              ....  0.804272
   Range separation parameter mu (erf(mu*r12)/r12)        ....  0.250000
 RI-approximation to the Coulomb term is turned on
   Number of auxiliary basis functions  .... 1733
   RIJ-COSX (HFX calculated with COS-X)).... on


General Settings:
 Integral files         IntName         .... total
 Hartree-Fock type      HFTyp           .... RHF
 Total Charge           Charge          ....    0
 Multiplicity           Mult            ....    1
 Number of Electrons    NEL             ....  216
 Basis Dimension        Dim             .... 1082
 Nuclear Repulsion      ENuc            ....   2776.5770576152 Eh

Convergence Acceleration:
 DIIS                   CNVDIIS         .... on
   Start iteration      DIISMaxIt       ....    12
   Startup error        DIISStart       ....  0.200000
   # of expansion vecs  DIISMaxEq       ....     5
   Bias factor          DIISBfac        ....   1.050
   Max. coefficient     DIISMaxC        ....  10.000
 Newton-Raphson         CNVNR           .... off
 SOSCF                  CNVSOSCF        .... on
   Start iteration      SOSCFMaxIt      ....   150
   Startup grad/error   SOSCFStart      ....  0.003300
 Level Shifting         CNVShift        .... on
   Level shift para.    LevelShift      ....    0.2500
   Turn off err/grad.   ShiftErr        ....    0.0010
 Zerner damping         CNVZerner       .... off
 Static damping         CNVDamp         .... on
   Fraction old density DampFac         ....    0.7000
   Max. Damping (<1)    DampMax         ....    0.9800
   Min. Damping (>=0)   DampMin         ....    0.0000
   Turn off err/grad.   DampErr         ....    0.1000
 Fernandez-Rico         CNVRico         .... off

SCF Procedure:
 Maximum # iterations   MaxIter         ....   125
 SCF integral mode      SCFMode         .... Direct
   Integral package                     .... LIBINT
 Reset frequeny         DirectResetFreq ....    20
 Integral Threshold     Thresh          ....  2.500e-11 Eh
 Primitive CutOff       TCut            ....  2.500e-12 Eh

Convergence Tolerance:
 Convergence Check Mode ConvCheckMode   .... Total+1el-Energy
 Convergence forced     ConvForced      .... 1
 Energy Change          TolE            ....  1.000e-08 Eh
 1-El. energy change                    ....  1.000e-05 Eh
 Orbital Gradient       TolG            ....  1.000e-05
 Orbital Rotation angle TolX            ....  1.000e-05
 DIIS Error             TolErr          ....  5.000e-07


Diagonalization of the overlap matrix:
Smallest eigenvalue                        ... 6.114e-06
Time for diagonalization                   ...    0.366 sec
Threshold for overlap eigenvalues          ... 1.000e-08
Number of eigenvalues below threshold      ... 0
Time for construction of square roots      ...    0.401 sec
Total time needed                          ...    0.775 sec

-------------------
DFT GRID GENERATION
-------------------

General Integration Accuracy     IntAcc      ...  5.010
Radial Grid Type                 RadialGrid  ... Gauss-Chebyshev
Angular Grid (max. acc.)         AngularGrid ... Lebedev-434
Angular grid pruning method      GridPruning ... 3 (G Style)
Weight generation scheme         WeightScheme... Becke
Basis function cutoff            BFCut       ...    1.0000e-11
Integration weight cutoff        WCut        ...    1.0000e-14
Grids for H and He will be reduced by one unit

# of grid points (after initial pruning)     ... 442824 (   0.0 sec)
# of grid points (after weights+screening)   ... 386021 (   0.8 sec)
nearest neighbour list constructed           ...    0.0 sec
Grid point re-assignment to atoms done       ...    0.2 sec
Grid point division into batches done        ...    3.7 sec
Reduced shell lists constructed in    4.4 sec

Total number of grid points                  ...   386021
Total number of batches                      ...     6056
Average number of points per batch           ...       63
Average number of grid points per atom       ...     8213
Average number of shells per batch           ...   155.61 (37.77%)
Average number of basis functions per batch  ...   393.97 (36.41%)
Average number of large shells per batch     ...   102.01 (65.55%)
Average number of large basis fcns per batch ...   257.37 (65.33%)
Maximum spatial batch extension              ...  12.63, 11.47, 17.52 au
Average spatial batch extension              ...   0.05,  0.05,  0.06 au

Time for grid setup =    5.703 sec

------------------------------
INITIAL GUESS: MODEL POTENTIAL
------------------------------
Loading Hartree-Fock densities                     ... done
Calculating cut-offs                               ... done
Setting up the integral package                    ... done
Initializing the effective Hamiltonian             ... done
Starting the Coulomb interaction                   ... done (   0.3 sec)
Reading the grid                                   ... done
Mapping shells                                     ... done
Starting the XC term evaluation                    ... done (   2.0 sec)
  promolecular density results
     # of electrons  =    215.992782527
     EX              =   -181.562994230
     EC              =     -7.327214162
     EX+EC           =   -188.890208392
Transforming the Hamiltonian                       ... done (   0.2 sec)
Diagonalizing the Hamiltonian                      ... done (   0.3 sec)
Back transforming the eigenvectors                 ... done (   0.1 sec)
Now organizing SCF variables                       ... done
                      ------------------
                      INITIAL GUESS DONE (   8.9 sec)
                      ------------------
--------------------
COSX GRID GENERATION
--------------------

General Integration Accuracy     IntAcc      ...  3.340
Radial Grid Type                 RadialGrid  ... Gauss-Chebyshev
Angular Grid (max. acc.)         AngularGrid ... Lebedev-50
Angular grid pruning method      GridPruning ... 3 (G Style)
Weight generation scheme         WeightScheme... Becke
Basis function cutoff            BFCut       ...    1.0000e-11
Integration weight cutoff        WCut        ...    1.0000e-14
Grids for H and He will be reduced by one unit

# of grid points (after initial pruning)     ...  23318 (   0.0 sec)
# of grid points (after weights+screening)   ...  21194 (   0.1 sec)
nearest neighbour list constructed           ...    0.0 sec
Grid point re-assignment to atoms done       ...    0.0 sec
Grid point division into batches done        ...    0.0 sec
Reduced shell lists constructed in    0.1 sec

Total number of grid points                  ...    21194
Total number of batches                      ...      355
Average number of points per batch           ...       59
Average number of grid points per atom       ...      451
Average number of shells per batch           ...   172.19 (41.79%)
Average number of basis functions per batch  ...   442.69 (40.91%)
Average number of large shells per batch     ...   114.94 (66.75%)
Average number of large basis fcns per batch ...   293.44 (66.29%)
Maximum spatial batch extension              ...  10.31,  6.26, 18.11 au
Average spatial batch extension              ...   0.14,  0.11,  0.23 au

Overlap Fitting                  UseSFitting ... on
Constructing numerical overlap ... done (      0.1 sec)
Inverting numerical overlap    ... done (      0.1 sec)
Obtaining analytic overlap     ... done (      0.0 sec)
Final contraction and storage  ... done (      0.4 sec)


General Integration Accuracy     IntAcc      ...  3.670
Radial Grid Type                 RadialGrid  ... Gauss-Chebyshev
Angular Grid (max. acc.)         AngularGrid ... Lebedev-50
Angular grid pruning method      GridPruning ... 3 (G Style)
Weight generation scheme         WeightScheme... Becke
Basis function cutoff            BFCut       ...    1.0000e-11
Integration weight cutoff        WCut        ...    1.0000e-14
Grids for H and He will be reduced by one unit

# of grid points (after initial pruning)     ...  29204 (   0.0 sec)
# of grid points (after weights+screening)   ...  26441 (   0.1 sec)
nearest neighbour list constructed           ...    0.0 sec
Grid point re-assignment to atoms done       ...    0.0 sec
Grid point division into batches done        ...    0.0 sec
Reduced shell lists constructed in    0.1 sec

Total number of grid points                  ...    26441
Total number of batches                      ...      435
Average number of points per batch           ...       60
Average number of grid points per atom       ...      563
Average number of shells per batch           ...   173.25 (42.05%)
Average number of basis functions per batch  ...   447.05 (41.32%)
Average number of large shells per batch     ...   115.70 (66.78%)
Average number of large basis fcns per batch ...   296.30 (66.28%)
Maximum spatial batch extension              ...  10.31, 10.40, 17.64 au
Average spatial batch extension              ...   0.12,  0.12,  0.22 au

Overlap Fitting                  UseSFitting ... on
Constructing numerical overlap ... done (      0.1 sec)
Inverting numerical overlap    ... done (      0.1 sec)
Obtaining analytic overlap     ... done (      0.0 sec)
Final contraction and storage  ... done (      0.4 sec)


General Integration Accuracy     IntAcc      ...  4.010
Radial Grid Type                 RadialGrid  ... Gauss-Chebyshev
Angular Grid (max. acc.)         AngularGrid ... Lebedev-110
Angular grid pruning method      GridPruning ... 3 (G Style)
Weight generation scheme         WeightScheme... Becke
Basis function cutoff            BFCut       ...    1.0000e-11
Integration weight cutoff        WCut        ...    1.0000e-14
Grids for H and He will be reduced by one unit

# of grid points (after initial pruning)     ...  56858 (   0.0 sec)
# of grid points (after weights+screening)   ...  50959 (   0.1 sec)
nearest neighbour list constructed           ...    0.0 sec
Grid point re-assignment to atoms done       ...    0.0 sec
Grid point division into batches done        ...    0.1 sec
Reduced shell lists constructed in    0.2 sec

Total number of grid points                  ...    50959
Total number of batches                      ...      818
Average number of points per batch           ...       62
Average number of grid points per atom       ...     1084
Average number of shells per batch           ...   170.08 (41.28%)
Average number of basis functions per batch  ...   437.31 (40.42%)
Average number of large shells per batch     ...   114.03 (67.04%)
Average number of large basis fcns per batch ...   291.47 (66.65%)
Maximum spatial batch extension              ...  10.18, 12.76, 33.01 au
Average spatial batch extension              ...   0.11,  0.11,  0.20 au

Overlap Fitting                  UseSFitting ... on
Constructing numerical overlap ... done (      0.2 sec)
Inverting numerical overlap    ... done (      0.1 sec)
Obtaining analytic overlap     ... done (      0.0 sec)
Final contraction and storage  ... done (      0.4 sec)

Time for X-Grid setup             =    3.081 sec
--------------
SCF ITERATIONS
--------------
ITER       Energy         Delta-E        Max-DP      RMS-DP      [F,P]     Damp
               ***  Starting incremental Fock matrix formation  ***
  0  -1389.1781372009   0.000000000000 0.03587180  0.00057095  0.1533232 0.7000
  1  -1389.3836067989  -0.205469597919 0.03464575  0.00047747  0.0963303 0.7000
                               ***Turning on DIIS***
  2  -1389.4936001927  -0.109993393833 0.10663320  0.00111875  0.0546950 0.0000
  3  -1389.6817646314  -0.188164438753 0.02263082  0.00026064  0.0338460 0.0000
  4  -1389.7047328950  -0.022968263522 0.01016923  0.00009807  0.0151011 0.0000
  5  -1389.7057034483  -0.000970553369 0.00372373  0.00003876  0.0079114 0.0000
                      *** Initiating the SOSCF procedure ***
                           *** Shutting down DIIS ***
                      *** Re-Reading the Fockian *** 
                      *** Removing any level shift *** 
ITER      Energy       Delta-E        Grad      Rot      Max-DP    RMS-DP
  6  -1389.70601400  -0.0003105545  0.001641  0.001641  0.002926  0.000023
               *** Restarting incremental Fock matrix formation ***
  7  -1389.70615435  -0.0001403487  0.001138  0.004329  0.009642  0.000111
  8  -1389.70622348  -0.0000691324  0.000458  0.004985  0.006658  0.000081
  9  -1389.70624095  -0.0000174707  0.000468  0.001270  0.005836  0.000068
 10  -1389.70625086  -0.0000099102  0.000133  0.000365  0.000893  0.000011
 11  -1389.70625102  -0.0000001597  0.000067  0.000167  0.000603  0.000007
 12  -1389.70625154  -0.0000005136  0.000018  0.000063  0.000233  0.000002
 13  -1389.70625150   0.0000000333  0.000008  0.000024  0.000184  0.000001
                  ***Gradient check signals convergence***
              ***Rediagonalizing the Fockian in SOSCF/NRSCF***

               *****************************************************
               *                     SUCCESS                       *
               *           SCF CONVERGED AFTER  14 CYCLES          *
               *****************************************************

Old exchange energy                            =    -59.258209475 Eh
New exchange energy                            =    -59.257922236 Eh
Exchange energy change after final integration =      0.000287239 Eh
Total energy after final integration           =  -1389.705964350 Eh
Final COS-X integration done in                =    31.803 sec

----------------
TOTAL SCF ENERGY
----------------

Total Energy       :        -1389.70596435 Eh          -37815.82181 eV

Components:
Nuclear Repulsion  :         2776.57705762 Eh           75554.50285 eV
Electronic Energy  :        -4166.28302197 Eh         -113370.32466 eV
One Electron Energy:        -7405.31650382 Eh         -201508.90658 eV
Two Electron Energy:         3239.03348185 Eh           88138.58192 eV

Virial components:
Potential Energy   :        -2772.34141451 Eh          -75439.24515 eV
Kinetic Energy     :         1382.63545016 Eh           37623.42334 eV
Virial Ratio       :            2.00511379


DFT components:
N(Alpha)           :      108.000018612870 electrons
N(Beta)            :      108.000018612870 electrons
N(Total)           :      216.000037225739 electrons
E(XC)              :     -133.633525273807 Eh       

---------------
SCF CONVERGENCE
---------------

  Last Energy change         ...   -8.4464e-08  Tolerance :   1.0000e-08
  Last MAX-Density change    ...    4.0859e-14  Tolerance :   1.0000e-07
  Last RMS-Density change    ...    1.2800e-16  Tolerance :   5.0000e-09
  Last Orbital Gradient      ...    2.1520e-06  Tolerance :   1.0000e-05
  Last Orbital Rotation      ...    1.0407e-05  Tolerance :   1.0000e-05

             **** THE GBW FILE WAS UPDATED (total.gbw) ****
             **** DENSITY FILE WAS UPDATED (total.scfp.tmp) ****
             **** ENERGY FILE WAS UPDATED (total.en.tmp) ****
----------------
ORBITAL ENERGIES
----------------

  NO   OCC          E(Eh)            E(eV) 
   0   2.0000     -19.377263      -527.2821 
   1   2.0000     -19.319489      -525.7100 
   2   2.0000     -19.317197      -525.6476 
   3   2.0000     -14.504058      -394.6755 
   4   2.0000     -14.502693      -394.6384 
   5   2.0000     -14.468898      -393.7187 
   6   2.0000     -10.360355      -281.9196 
   7   2.0000     -10.354887      -281.7708 
   8   2.0000     -10.353236      -281.7259 
   9   2.0000     -10.351664      -281.6831 
  10   2.0000     -10.345080      -281.5039 
  11   2.0000     -10.342227      -281.4263 
  12   2.0000     -10.335821      -281.2520 
  13   2.0000     -10.330773      -281.1146 
  14   2.0000     -10.326618      -281.0016 
  15   2.0000     -10.315038      -280.6865 
  16   2.0000     -10.313756      -280.6516 
  17   2.0000     -10.313455      -280.6434 
  18   2.0000     -10.312110      -280.6068 
  19   2.0000     -10.299358      -280.2598 
  20   2.0000     -10.293550      -280.1017 
  21   2.0000     -10.292926      -280.0848 
  22   2.0000     -10.291524      -280.0466 
  23   2.0000     -10.291438      -280.0443 
  24   2.0000     -10.290838      -280.0279 
  25   2.0000     -10.290792      -280.0267 
  26   2.0000     -10.289571      -279.9935 
  27   2.0000     -10.286617      -279.9131 
  28   2.0000     -10.285629      -279.8862 
  29   2.0000     -10.285302      -279.8773 
  30   2.0000     -10.283017      -279.8151 
  31   2.0000     -10.275099      -279.5997 
  32   2.0000      -1.323180       -36.0056 
  33   2.0000      -1.257676       -34.2231 
  34   2.0000      -1.251508       -34.0553 
  35   2.0000      -1.106353       -30.1054 
  36   2.0000      -1.033153       -28.1135 
  37   2.0000      -1.026592       -27.9350 
  38   2.0000      -0.979049       -26.6413 
  39   2.0000      -0.965765       -26.2798 
  40   2.0000      -0.951882       -25.9020 
  41   2.0000      -0.935156       -25.4469 
  42   2.0000      -0.933938       -25.4137 
  43   2.0000      -0.926383       -25.2082 
  44   2.0000      -0.908710       -24.7273 
  45   2.0000      -0.897678       -24.4271 
  46   2.0000      -0.874318       -23.7914 
  47   2.0000      -0.854054       -23.2400 
  48   2.0000      -0.841107       -22.8877 
  49   2.0000      -0.826642       -22.4941 
  50   2.0000      -0.798995       -21.7418 
  51   2.0000      -0.768190       -20.9035 
  52   2.0000      -0.766360       -20.8537 
  53   2.0000      -0.745113       -20.2756 
  54   2.0000      -0.737837       -20.0776 
  55   2.0000      -0.722143       -19.6505 
  56   2.0000      -0.716690       -19.5021 
  57   2.0000      -0.706524       -19.2255 
  58   2.0000      -0.699870       -19.0444 
  59   2.0000      -0.678775       -18.4704 
  60   2.0000      -0.671146       -18.2628 
  61   2.0000      -0.668877       -18.2011 
  62   2.0000      -0.652606       -17.7583 
  63   2.0000      -0.641484       -17.4557 
  64   2.0000      -0.625333       -17.0162 
  65   2.0000      -0.619325       -16.8527 
  66   2.0000      -0.619162       -16.8482 
  67   2.0000      -0.614111       -16.7108 
  68   2.0000      -0.601264       -16.3612 
  69   2.0000      -0.599029       -16.3004 
  70   2.0000      -0.584267       -15.8987 
  71   2.0000      -0.577514       -15.7150 
  72   2.0000      -0.565126       -15.3779 
  73   2.0000      -0.560902       -15.2629 
  74   2.0000      -0.556453       -15.1419 
  75   2.0000      -0.546362       -14.8673 
  76   2.0000      -0.541126       -14.7248 
  77   2.0000      -0.536905       -14.6099 
  78   2.0000      -0.533762       -14.5244 
  79   2.0000      -0.528375       -14.3778 
  80   2.0000      -0.522551       -14.2193 
  81   2.0000      -0.513565       -13.9748 
  82   2.0000      -0.512498       -13.9458 
  83   2.0000      -0.504692       -13.7334 
  84   2.0000      -0.499427       -13.5901 
  85   2.0000      -0.497810       -13.5461 
  86   2.0000      -0.489236       -13.3128 
  87   2.0000      -0.482857       -13.1392 
  88   2.0000      -0.474352       -12.9078 
  89   2.0000      -0.469517       -12.7762 
  90   2.0000      -0.466219       -12.6865 
  91   2.0000      -0.462786       -12.5930 
  92   2.0000      -0.443855       -12.0779 
  93   2.0000      -0.442954       -12.0534 
  94   2.0000      -0.439198       -11.9512 
  95   2.0000      -0.436471       -11.8770 
  96   2.0000      -0.432823       -11.7777 
  97   2.0000      -0.419383       -11.4120 
  98   2.0000      -0.397605       -10.8194 
  99   2.0000      -0.390268       -10.6197 
 100   2.0000      -0.387357       -10.5405 
 101   2.0000      -0.384905       -10.4738 
 102   2.0000      -0.375753       -10.2248 
 103   2.0000      -0.356137        -9.6910 
 104   2.0000      -0.327855        -8.9214 
 105   2.0000      -0.302187        -8.2229 
 106   2.0000      -0.294013        -8.0005 
 107   2.0000      -0.260945        -7.1007 
 108   0.0000      -0.037023        -1.0074 
 109   0.0000       0.003051         0.0830 
 110   0.0000       0.036059         0.9812 
 111   0.0000       0.054427         1.4810 
 112   0.0000       0.071237         1.9385 
 113   0.0000       0.077012         2.0956 
 114   0.0000       0.086085         2.3425 
 115   0.0000       0.100688         2.7399 
 116   0.0000       0.109628         2.9831 
 117   0.0000       0.121912         3.3174 
 118   0.0000       0.126688         3.4473 
 119   0.0000       0.133295         3.6271 
 120   0.0000       0.136142         3.7046 
 121   0.0000       0.142093         3.8665 
 122   0.0000       0.146430         3.9846 
 123   0.0000       0.147539         4.0147 
 124   0.0000       0.154683         4.2091 
 125   0.0000       0.158013         4.2998 
 126   0.0000       0.165407         4.5009 
 127   0.0000       0.167360         4.5541 
 128   0.0000       0.168878         4.5954 
 129   0.0000       0.174571         4.7503 
 130   0.0000       0.176571         4.8047 
 131   0.0000       0.183894         5.0040 
 132   0.0000       0.187407         5.0996 
 133   0.0000       0.193295         5.2598 
 134   0.0000       0.197457         5.3731 
 135   0.0000       0.203169         5.5285 
 136   0.0000       0.206088         5.6079 
 137   0.0000       0.213832         5.8187 
 138   0.0000       0.218733         5.9520 
 139   0.0000       0.219994         5.9863 
 140   0.0000       0.225145         6.1265 
 141   0.0000       0.229625         6.2484 
 142   0.0000       0.232755         6.3336 
 143   0.0000       0.238890         6.5005 
 144   0.0000       0.240243         6.5373 
 145   0.0000       0.243711         6.6317 
 146   0.0000       0.249365         6.7856 
 147   0.0000       0.252036         6.8583 
 148   0.0000       0.259459         7.0602 
 149   0.0000       0.262095         7.1320 
 150   0.0000       0.267278         7.2730 
 151   0.0000       0.269446         7.3320 
 152   0.0000       0.273503         7.4424 
 153   0.0000       0.275413         7.4944 
 154   0.0000       0.278352         7.5743 
 155   0.0000       0.282391         7.6842 
 156   0.0000       0.285009         7.7555 
 157   0.0000       0.286552         7.7975 
 158   0.0000       0.290173         7.8960 
 159   0.0000       0.294099         8.0028 
 160   0.0000       0.296875         8.0784 
 161   0.0000       0.300325         8.1723 
 162   0.0000       0.303527         8.2594 
 163   0.0000       0.305469         8.3122 
 164   0.0000       0.310233         8.4419 
 165   0.0000       0.311099         8.4654 
 166   0.0000       0.317948         8.6518 
 167   0.0000       0.322866         8.7856 
 168   0.0000       0.325751         8.8641 
 169   0.0000       0.326844         8.8939 
 170   0.0000       0.330578         8.9955 
 171   0.0000       0.336488         9.1563 
 172   0.0000       0.339304         9.2329 
 173   0.0000       0.342085         9.3086 
 174   0.0000       0.347784         9.4637 
 175   0.0000       0.353043         9.6068 
 176   0.0000       0.354809         9.6548 
 177   0.0000       0.359449         9.7811 
 178   0.0000       0.364159         9.9093 
 179   0.0000       0.369573        10.0566 
 180   0.0000       0.371606        10.1119 
 181   0.0000       0.372718        10.1422 
 182   0.0000       0.376011        10.2318 
 183   0.0000       0.378386        10.2964 
 184   0.0000       0.380696        10.3593 
 185   0.0000       0.384181        10.4541 
 186   0.0000       0.390251        10.6193 
 187   0.0000       0.392804        10.6887 
 188   0.0000       0.394968        10.7476 
 189   0.0000       0.400581        10.9004 
 190   0.0000       0.404913        11.0182 
 191   0.0000       0.408036        11.1032 
 192   0.0000       0.415494        11.3062 
 193   0.0000       0.417635        11.3644 
 194   0.0000       0.419967        11.4279 
 195   0.0000       0.423629        11.5275 
 196   0.0000       0.430963        11.7271 
 197   0.0000       0.433124        11.7859 
 198   0.0000       0.434367        11.8197 
 199   0.0000       0.437260        11.8985 
 200   0.0000       0.439039        11.9469 
 201   0.0000       0.441824        12.0227 
 202   0.0000       0.444556        12.0970 
 203   0.0000       0.446953        12.1622 
 204   0.0000       0.448081        12.1929 
 205   0.0000       0.452990        12.3265 
 206   0.0000       0.455507        12.3950 
 207   0.0000       0.460373        12.5274 
 208   0.0000       0.461583        12.5603 
 209   0.0000       0.465487        12.6666 
 210   0.0000       0.468233        12.7413 
 211   0.0000       0.471409        12.8277 
 212   0.0000       0.473103        12.8738 
 213   0.0000       0.475130        12.9289 
 214   0.0000       0.477267        12.9871 
 215   0.0000       0.479461        13.0468 
 216   0.0000       0.485240        13.2041 
 217   0.0000       0.490522        13.3478 
 218   0.0000       0.493214        13.4210 
 219   0.0000       0.496212        13.5026 
 220   0.0000       0.499037        13.5795 
 221   0.0000       0.503809        13.7093 
 222   0.0000       0.505584        13.7576 
 223   0.0000       0.508113        13.8265 
 224   0.0000       0.511692        13.9239 
 225   0.0000       0.514646        14.0042 
 226   0.0000       0.517838        14.0911 
 227   0.0000       0.525433        14.2978 
 228   0.0000       0.526579        14.3289 
 229   0.0000       0.531326        14.4581 
 230   0.0000       0.534852        14.5541 
 231   0.0000       0.539681        14.6855 
 232   0.0000       0.542308        14.7570 
 233   0.0000       0.543856        14.7991 
 234   0.0000       0.547031        14.8855 
 235   0.0000       0.550117        14.9694 
 236   0.0000       0.552913        15.0455 
 237   0.0000       0.558014        15.1843 
 238   0.0000       0.562296        15.3009 
 239   0.0000       0.563442        15.3320 
 240   0.0000       0.568003        15.4561 
 241   0.0000       0.572115        15.5681 
 242   0.0000       0.578914        15.7531 
 243   0.0000       0.581915        15.8347 
 244   0.0000       0.585453        15.9310 
 245   0.0000       0.590225        16.0608 
 246   0.0000       0.593130        16.1399 
 247   0.0000       0.595761        16.2115 
 248   0.0000       0.598106        16.2753 
 249   0.0000       0.600600        16.3432 
 250   0.0000       0.608892        16.5688 
 251   0.0000       0.612941        16.6790 
 252   0.0000       0.616514        16.7762 
 253   0.0000       0.617228        16.7956 
 254   0.0000       0.627287        17.0693 
 255   0.0000       0.637285        17.3414 
 256   0.0000       0.639300        17.3962 
 257   0.0000       0.646879        17.6025 
 258   0.0000       0.648921        17.6580 
 259   0.0000       0.655254        17.8304 
 260   0.0000       0.658256        17.9121 
 261   0.0000       0.663102        18.0439 
 262   0.0000       0.670226        18.2378 
 263   0.0000       0.675691        18.3865 
 264   0.0000       0.681060        18.5326 
 265   0.0000       0.685311        18.6483 
 266   0.0000       0.689260        18.7557 
 267   0.0000       0.689575        18.7643 
 268   0.0000       0.693224        18.8636 
 269   0.0000       0.697499        18.9799 
 270   0.0000       0.701303        19.0834 
 271   0.0000       0.704480        19.1699 
 272   0.0000       0.706172        19.2159 
 273   0.0000       0.712135        19.3782 
 274   0.0000       0.715675        19.4745 
 275   0.0000       0.719699        19.5840 
 276   0.0000       0.721996        19.6465 
 277   0.0000       0.726858        19.7788 
 278   0.0000       0.730557        19.8795 
 279   0.0000       0.731694        19.9104 
 280   0.0000       0.737474        20.0677 
 281   0.0000       0.744064        20.2470 
 282   0.0000       0.746972        20.3261 
 283   0.0000       0.752551        20.4779 
 284   0.0000       0.754537        20.5320 
 285   0.0000       0.761352        20.7174 
 286   0.0000       0.766887        20.8680 
 287   0.0000       0.769235        20.9319 
 288   0.0000       0.772846        21.0302 
 289   0.0000       0.777049        21.1446 
 290   0.0000       0.781501        21.2657 
 291   0.0000       0.782794        21.3009 
 292   0.0000       0.792039        21.5525 
 293   0.0000       0.794861        21.6293 
 294   0.0000       0.795876        21.6569 
 295   0.0000       0.798989        21.7416 
 296   0.0000       0.803582        21.8666 
 297   0.0000       0.805502        21.9188 
 298   0.0000       0.808446        21.9989 
 299   0.0000       0.811262        22.0756 
 300   0.0000       0.815458        22.1897 
 301   0.0000       0.820780        22.3346 
 302   0.0000       0.827939        22.5294 
 303   0.0000       0.828922        22.5561 
 304   0.0000       0.833846        22.6901 
 305   0.0000       0.836626        22.7658 
 306   0.0000       0.843350        22.9487 
 307   0.0000       0.844312        22.9749 
 308   0.0000       0.849621        23.1194 
 309   0.0000       0.851854        23.1801 
 310   0.0000       0.852238        23.1906 
 311   0.0000       0.860626        23.4188 
 312   0.0000       0.863850        23.5066 
 313   0.0000       0.866624        23.5820 
 314   0.0000       0.871048        23.7024 
 315   0.0000       0.879783        23.9401 
 316   0.0000       0.886445        24.1214 
 317   0.0000       0.889104        24.1938 
 318   0.0000       0.891738        24.2654 
 319   0.0000       0.901141        24.5213 
 320   0.0000       0.905198        24.6317 
 321   0.0000       0.913803        24.8658 
 322   0.0000       0.922871        25.1126 
 323   0.0000       0.926404        25.2087 
 324   0.0000       0.931840        25.3567 
 325   0.0000       0.934312        25.4239 
 326   0.0000       0.938728        25.5441 
 327   0.0000       0.944265        25.6948 
 328   0.0000       0.949119        25.8268 
 329   0.0000       0.955323        25.9957 
 330   0.0000       0.959569        26.1112 
 331   0.0000       0.963722        26.2242 
 332   0.0000       0.965027        26.2597 
 333   0.0000       0.969584        26.3837 
 334   0.0000       0.973409        26.4878 
 335   0.0000       0.975590        26.5472 
 336   0.0000       0.982036        26.7226 
 337   0.0000       0.986917        26.8554 
 338   0.0000       0.992333        27.0028 
 339   0.0000       0.996237        27.1090 
 340   0.0000       0.998809        27.1790 
 341   0.0000       1.002962        27.2920 
 342   0.0000       1.007035        27.4028 
 343   0.0000       1.020601        27.7720 
 344   0.0000       1.028731        27.9932 
 345   0.0000       1.035644        28.1813 
 346   0.0000       1.037824        28.2406 
 347   0.0000       1.049707        28.5640 
 348   0.0000       1.054002        28.6808 
 349   0.0000       1.056541        28.7499 
 350   0.0000       1.067517        29.0486 
 351   0.0000       1.069215        29.0948 
 352   0.0000       1.071413        29.1546 
 353   0.0000       1.079243        29.3677 
 354   0.0000       1.087068        29.5806 
 355   0.0000       1.089472        29.6460 
 356   0.0000       1.098670        29.8963 
 357   0.0000       1.100757        29.9531 
 358   0.0000       1.106005        30.0959 
 359   0.0000       1.111164        30.2363 
 360   0.0000       1.117272        30.4025 
 361   0.0000       1.122951        30.5570 
 362   0.0000       1.133062        30.8322 
 363   0.0000       1.140596        31.0372 
 364   0.0000       1.151245        31.3270 
 365   0.0000       1.154016        31.4024 
 366   0.0000       1.160161        31.5696 
 367   0.0000       1.165350        31.7108 
 368   0.0000       1.172740        31.9119 
 369   0.0000       1.180608        32.1260 
 370   0.0000       1.186358        32.2824 
 371   0.0000       1.190365        32.3915 
 372   0.0000       1.192288        32.4438 
 373   0.0000       1.195581        32.5334 
 374   0.0000       1.199153        32.6306 
 375   0.0000       1.213457        33.0198 
 376   0.0000       1.221127        33.2286 
 377   0.0000       1.225820        33.3563 
 378   0.0000       1.235033        33.6070 
 379   0.0000       1.236056        33.6348 
 380   0.0000       1.241754        33.7898 
 381   0.0000       1.250238        34.0207 
 382   0.0000       1.261423        34.3251 
 383   0.0000       1.265027        34.4231 
 384   0.0000       1.269298        34.5394 
 385   0.0000       1.276117        34.7249 
 386   0.0000       1.279113        34.8064 
 387   0.0000       1.282844        34.9080 
 388   0.0000       1.289631        35.0926 
 389   0.0000       1.295809        35.2608 
 390   0.0000       1.307390        35.5759 
 391   0.0000       1.313911        35.7533 
 392   0.0000       1.319636        35.9091 
 393   0.0000       1.325611        36.0717 
 394   0.0000       1.329075        36.1660 
 395   0.0000       1.337365        36.3916 
 396   0.0000       1.344645        36.5897 
 397   0.0000       1.346084        36.6288 
 398   0.0000       1.347219        36.6597 
 399   0.0000       1.351890        36.7868 
 400   0.0000       1.355656        36.8893 
 401   0.0000       1.365829        37.1661 
 402   0.0000       1.369792        37.2739 
 403   0.0000       1.373831        37.3839 
 404   0.0000       1.376531        37.4573 
 405   0.0000       1.378788        37.5187 
 406   0.0000       1.391198        37.8564 
 407   0.0000       1.396170        37.9917 
 408   0.0000       1.400528        38.1103 
 409   0.0000       1.403365        38.1875 
 410   0.0000       1.409541        38.3556 
 411   0.0000       1.421219        38.6733 
 412   0.0000       1.422996        38.7217 
 413   0.0000       1.429170        38.8897 
 414   0.0000       1.435994        39.0754 
 415   0.0000       1.440128        39.1879 
 416   0.0000       1.444092        39.2957 
 417   0.0000       1.446973        39.3741 
 418   0.0000       1.449686        39.4480 
 419   0.0000       1.456588        39.6358 
 420   0.0000       1.470880        40.0247 
 421   0.0000       1.483671        40.3727 
 422   0.0000       1.485244        40.4156 
 423   0.0000       1.494209        40.6595 
 424   0.0000       1.499692        40.8087 
 425   0.0000       1.506134        40.9840 
 426   0.0000       1.510421        41.1007 
 427   0.0000       1.513786        41.1922 
 428   0.0000       1.522922        41.4408 
 429   0.0000       1.531972        41.6871 
 430   0.0000       1.535845        41.7925 
 431   0.0000       1.539406        41.8894 
 432   0.0000       1.542418        41.9713 
 433   0.0000       1.544354        42.0240 
 434   0.0000       1.550653        42.1954 
 435   0.0000       1.560818        42.4720 
 436   0.0000       1.563122        42.5347 
 437   0.0000       1.565058        42.5874 
 438   0.0000       1.571875        42.7729 
 439   0.0000       1.584220        43.1088 
 440   0.0000       1.585712        43.1494 
 441   0.0000       1.589470        43.2517 
 442   0.0000       1.592980        43.3472 
 443   0.0000       1.598277        43.4913 
 444   0.0000       1.601904        43.5900 
 445   0.0000       1.605517        43.6883 
 446   0.0000       1.608975        43.7824 
 447   0.0000       1.612975        43.8913 
 448   0.0000       1.613809        43.9140 
 449   0.0000       1.620846        44.1055 
 450   0.0000       1.623971        44.1905 
 451   0.0000       1.632198        44.4144 
 452   0.0000       1.634504        44.4771 
 453   0.0000       1.644533        44.7500 
 454   0.0000       1.644909        44.7602 
 455   0.0000       1.648643        44.8619 
 456   0.0000       1.651087        44.9284 
 457   0.0000       1.657118        45.0925 
 458   0.0000       1.660833        45.1936 
 459   0.0000       1.664803        45.3016 
 460   0.0000       1.681478        45.7553 
 461   0.0000       1.684107        45.8269 
 462   0.0000       1.691781        46.0357 
 463   0.0000       1.697981        46.2044 
 464   0.0000       1.701396        46.2973 
 465   0.0000       1.708522        46.4912 
 466   0.0000       1.718130        46.7527 
 467   0.0000       1.724935        46.9379 
 468   0.0000       1.730082        47.0779 
 469   0.0000       1.736007        47.2392 
 470   0.0000       1.742130        47.4058 
 471   0.0000       1.750583        47.6358 
 472   0.0000       1.755524        47.7702 
 473   0.0000       1.761071        47.9212 
 474   0.0000       1.763792        47.9952 
 475   0.0000       1.769905        48.1616 
 476   0.0000       1.775413        48.3115 
 477   0.0000       1.778464        48.3945 
 478   0.0000       1.784889        48.5693 
 479   0.0000       1.797082        48.9011 
 480   0.0000       1.801404        49.0187 
 481   0.0000       1.811438        49.2917 
 482   0.0000       1.814598        49.3777 
 483   0.0000       1.818014        49.4707 
 484   0.0000       1.820513        49.5387 
 485   0.0000       1.826176        49.6928 
 486   0.0000       1.831856        49.8473 
 487   0.0000       1.842527        50.1377 
 488   0.0000       1.844665        50.1959 
 489   0.0000       1.852869        50.4191 
 490   0.0000       1.858097        50.5614 
 491   0.0000       1.871041        50.9136 
 492   0.0000       1.884363        51.2761 
 493   0.0000       1.885524        51.3077 
 494   0.0000       1.890631        51.4467 
 495   0.0000       1.901640        51.7463 
 496   0.0000       1.910119        51.9770 
 497   0.0000       1.919562        52.2339 
 498   0.0000       1.925938        52.4074 
 499   0.0000       1.936384        52.6917 
 500   0.0000       1.940903        52.8146 
 501   0.0000       1.944020        52.8995 
 502   0.0000       1.946686        52.9720 
 503   0.0000       1.957988        53.2796 
 504   0.0000       1.962591        53.4048 
 505   0.0000       1.966717        53.5171 
 506   0.0000       1.973319        53.6967 
 507   0.0000       1.984440        53.9994 
 508   0.0000       1.985992        54.0416 
 509   0.0000       1.996003        54.3140 
 510   0.0000       1.998303        54.3766 
 511   0.0000       2.012254        54.7562 
 512   0.0000       2.018752        54.9330 
 513   0.0000       2.022617        55.0382 
 514   0.0000       2.032963        55.3197 
 515   0.0000       2.043916        55.6178 
 516   0.0000       2.050276        55.7909 
 517   0.0000       2.062739        56.1300 
 518   0.0000       2.065494        56.2049 
 519   0.0000       2.077177        56.5229 
 520   0.0000       2.079666        56.5906 
 521   0.0000       2.081884        56.6510 
 522   0.0000       2.091018        56.8995 
 523   0.0000       2.091626        56.9160 
 524   0.0000       2.097226        57.0684 
 525   0.0000       2.104366        57.2627 
 526   0.0000       2.120391        57.6988 
 527   0.0000       2.125861        57.8476 
 528   0.0000       2.135096        58.0989 
 529   0.0000       2.141778        58.2807 
 530   0.0000       2.145702        58.3875 
 531   0.0000       2.154999        58.6405 
 532   0.0000       2.160783        58.7979 
 533   0.0000       2.165031        58.9135 
 534   0.0000       2.170515        59.0627 
 535   0.0000       2.172927        59.1283 
 536   0.0000       2.176251        59.2188 
 537   0.0000       2.182545        59.3901 
 538   0.0000       2.185445        59.4690 
 539   0.0000       2.193172        59.6792 
 540   0.0000       2.195792        59.7505 
 541   0.0000       2.203570        59.9622 
 542   0.0000       2.208786        60.1041 
 543   0.0000       2.211468        60.1771 
 544   0.0000       2.225511        60.5592 
 545   0.0000       2.232174        60.7405 
 546   0.0000       2.249459        61.2109 
 547   0.0000       2.255838        61.3845 
 548   0.0000       2.261203        61.5305 
 549   0.0000       2.272492        61.8377 
 550   0.0000       2.274387        61.8892 
 551   0.0000       2.284638        62.1682 
 552   0.0000       2.285374        62.1882 
 553   0.0000       2.293029        62.3965 
 554   0.0000       2.295348        62.4596 
 555   0.0000       2.299578        62.5747 
 556   0.0000       2.302675        62.6590 
 557   0.0000       2.313560        62.9552 
 558   0.0000       2.316936        63.0470 
 559   0.0000       2.321655        63.1755 
 560   0.0000       2.327184        63.3259 
 561   0.0000       2.332447        63.4691 
 562   0.0000       2.334274        63.5188 
 563   0.0000       2.340265        63.6819 
 564   0.0000       2.344643        63.8010 
 565   0.0000       2.347894        63.8894 
 566   0.0000       2.351280        63.9816 
 567   0.0000       2.356505        64.1238 
 568   0.0000       2.366938        64.4077 
 569   0.0000       2.370234        64.4973 
 570   0.0000       2.373022        64.5732 
 571   0.0000       2.406018        65.4711 
 572   0.0000       2.418522        65.8113 
 573   0.0000       2.424348        65.9699 
 574   0.0000       2.429647        66.1141 
 575   0.0000       2.432255        66.1850 
 576   0.0000       2.442622        66.4671 
 577   0.0000       2.457528        66.8727 
 578   0.0000       2.461446        66.9793 
 579   0.0000       2.466349        67.1128 
 580   0.0000       2.475834        67.3709 
 581   0.0000       2.482022        67.5392 
 582   0.0000       2.498186        67.9791 
 583   0.0000       2.514040        68.4105 
 584   0.0000       2.521322        68.6087 
 585   0.0000       2.529667        68.8357 
 586   0.0000       2.541763        69.1649 
 587   0.0000       2.547736        69.3274 
 588   0.0000       2.552001        69.4435 
 589   0.0000       2.569652        69.9238 
 590   0.0000       2.572065        69.9895 
 591   0.0000       2.577535        70.1383 
 592   0.0000       2.583550        70.3020 
 593   0.0000       2.586754        70.3891 
 594   0.0000       2.601885        70.8009 
 595   0.0000       2.612278        71.0837 
 596   0.0000       2.615757        71.1784 
 597   0.0000       2.623890        71.3997 
 598   0.0000       2.626848        71.4802 
 599   0.0000       2.632272        71.6278 
 600   0.0000       2.634171        71.6794 
 601   0.0000       2.654219        72.2250 
 602   0.0000       2.664057        72.4927 
 603   0.0000       2.671127        72.6851 
 604   0.0000       2.679639        72.9167 
 605   0.0000       2.683359        73.0179 
 606   0.0000       2.686274        73.0972 
 607   0.0000       2.693366        73.2902 
 608   0.0000       2.696170        73.3665 
 609   0.0000       2.699890        73.4677 
 610   0.0000       2.705959        73.6329 
 611   0.0000       2.710464        73.7555 
 612   0.0000       2.715327        73.8878 
 613   0.0000       2.718446        73.9727 
 614   0.0000       2.722490        74.0827 
 615   0.0000       2.726862        74.2017 
 616   0.0000       2.731233        74.3206 
 617   0.0000       2.735255        74.4301 
 618   0.0000       2.739439        74.5439 
 619   0.0000       2.741774        74.6075 
 620   0.0000       2.745325        74.7041 
 621   0.0000       2.753132        74.9165 
 622   0.0000       2.753388        74.9235 
 623   0.0000       2.759047        75.0775 
 624   0.0000       2.765781        75.2607 
 625   0.0000       2.770003        75.3756 
 626   0.0000       2.774837        75.5072 
 627   0.0000       2.776245        75.5455 
 628   0.0000       2.781312        75.6834 
 629   0.0000       2.784843        75.7794 
 630   0.0000       2.791006        75.9471 
 631   0.0000       2.795848        76.0789 
 632   0.0000       2.798489        76.1507 
 633   0.0000       2.805440        76.3399 
 634   0.0000       2.812130        76.5219 
 635   0.0000       2.815082        76.6023 
 636   0.0000       2.816491        76.6406 
 637   0.0000       2.826573        76.9150 
 638   0.0000       2.830090        77.0107 
 639   0.0000       2.840803        77.3022 
 640   0.0000       2.845848        77.4395 
 641   0.0000       2.847708        77.4901 
 642   0.0000       2.851124        77.5830 
 643   0.0000       2.855902        77.7130 
 644   0.0000       2.859210        77.8031 
 645   0.0000       2.863134        77.9098 
 646   0.0000       2.874882        78.2295 
 647   0.0000       2.875766        78.2536 
 648   0.0000       2.880774        78.3899 
 649   0.0000       2.888315        78.5951 
 650   0.0000       2.892004        78.6954 
 651   0.0000       2.893928        78.7478 
 652   0.0000       2.897662        78.8494 
 653   0.0000       2.902645        78.9850 
 654   0.0000       2.908703        79.1498 
 655   0.0000       2.912263        79.2467 
 656   0.0000       2.917066        79.3774 
 657   0.0000       2.920876        79.4811 
 658   0.0000       2.926213        79.6263 
 659   0.0000       2.934665        79.8563 
 660   0.0000       2.937681        79.9384 
 661   0.0000       2.941664        80.0467 
 662   0.0000       2.947874        80.2157 
 663   0.0000       2.953808        80.3772 
 664   0.0000       2.958651        80.5090 
 665   0.0000       2.962568        80.6156 
 666   0.0000       2.975474        80.9668 
 667   0.0000       2.976178        80.9859 
 668   0.0000       2.978654        81.0533 
 669   0.0000       2.983139        81.1753 
 670   0.0000       2.985287        81.2338 
 671   0.0000       2.990465        81.3747 
 672   0.0000       3.000949        81.6600 
 673   0.0000       3.006166        81.8019 
 674   0.0000       3.012138        81.9644 
 675   0.0000       3.014198        82.0205 
 676   0.0000       3.019423        82.1627 
 677   0.0000       3.023784        82.2814 
 678   0.0000       3.028759        82.4167 
 679   0.0000       3.030932        82.4759 
 680   0.0000       3.040726        82.7424 
 681   0.0000       3.045093        82.8612 
 682   0.0000       3.049652        82.9853 
 683   0.0000       3.057666        83.2033 
 684   0.0000       3.059290        83.2475 
 685   0.0000       3.063094        83.3510 
 686   0.0000       3.073083        83.6228 
 687   0.0000       3.079287        83.7917 
 688   0.0000       3.080995        83.8381 
 689   0.0000       3.085417        83.9585 
 690   0.0000       3.087100        84.0042 
 691   0.0000       3.097093        84.2762 
 692   0.0000       3.099564        84.3434 
 693   0.0000       3.109527        84.6145 
 694   0.0000       3.116594        84.8068 
 695   0.0000       3.120716        84.9190 
 696   0.0000       3.125681        85.0541 
 697   0.0000       3.131419        85.2103 
 698   0.0000       3.134442        85.2925 
 699   0.0000       3.142181        85.5031 
 700   0.0000       3.144982        85.5793 
 701   0.0000       3.152792        85.7918 
 702   0.0000       3.157134        85.9100 
[...]
  70   7.962     155.7   0.003834   0.003458  11.151795  12.092640     0.15 (  47->  72)    0.08 (  46->  72)    0.07 (  48->  72)
  71   7.965     155.7   0.003082   0.002220  -4.702195  -4.854570     0.06 (  71->  95)    0.06 (  69->  92)    0.05 (  71->  90)
  72   8.017     154.7   0.058047   0.049659  14.258109  13.350633     0.30 (  49->  72)    0.06 (  67->  78)    0.04 (  65->  74)
  73   8.023     154.5   0.006831   0.006735  -3.929740  -6.464152     0.16 (  55->  73)    0.11 (  46->  72)    0.06 (  40->  72)
  74   8.049     154.0   0.003222   0.003005  -5.994888  -5.251887     0.06 (  70->  93)    0.05 (  70->  87)    0.05 (  71->  80)
  75   8.082     153.4   0.020660   0.018858  -29.302293  -26.710519     0.06 (  67->  74)    0.05 (  70->  88)    0.04 (  49->  72)
  76   8.096     153.1   0.189763   0.179330   2.624672   2.972673     0.12 (  67->  78)    0.08 (  63->  74)    0.06 (  63->  72)
  77   8.116     152.8   0.010007   0.010707  28.021445  28.509917     0.05 (  69->  87)    0.05 (  49->  72)    0.04 (  71->  98)
  78   8.129     152.5   0.010029   0.009233  20.690708  19.844628     0.22 (  55->  73)    0.06 (  47->  72)    0.05 (  60->  75)
  79   8.182     151.5   0.031196   0.028627  26.211731  22.444353     0.07 (  69->  87)    0.05 (  57->  73)    0.04 (  71->  98)
  80   8.251     150.3   0.041228   0.038131  -36.575151  -35.382847     0.04 (  71->  95)    0.03 (  71->  98)    0.03 (  71->  97)
  81   8.267     150.0   0.004968   0.004222  18.704643  16.692312     0.11 (  61->  76)    0.04 (  60->  75)    0.04 (  69->  91)
  82   8.274     149.8   0.011657   0.009706  23.524314  21.691209     0.62 (  61->  76)    0.05 (  61->  77)    0.02 (  59->  74)
  83   8.294     149.5   0.027038   0.026135  -16.152885  -16.464872     0.07 (  60->  75)    0.04 (  60->  74)    0.04 (  51->  73)
  84   8.298     149.4   0.024205   0.023999  -13.681508  -14.401906     0.08 (  69->  90)    0.07 (  69->  88)    0.06 (  71->  96)
  85   8.327     148.9   0.074250   0.075071  -59.488670  -62.751826     0.05 (  70->  77)    0.05 (  64->  76)    0.04 (  68->  77)
  86   8.342     148.6   0.029953   0.030744  38.610139  41.478318     0.08 (  71->  97)    0.05 (  69->  88)    0.05 (  68->  90)
  87   8.384     147.9   0.049590   0.049572  -5.969369  -4.883330     0.08 (  70->  82)    0.05 (  70->  95)    0.03 (  70->  93)
  88   8.397     147.7   0.014600   0.012519   8.791462   8.825730     0.24 (  70->  76)    0.06 (  49->  72)    0.04 (  71->  76)
  89   8.422     147.2   0.003132   0.003039  -10.070031  -10.679409     0.16 (  59->  74)    0.13 (  50->  72)    0.09 (  51->  72)
  90   8.437     147.0   0.018854   0.016972   2.338657   2.306443     0.11 (  63->  74)    0.03 (  70->  77)    0.03 (  64->  75)
  91   8.459     146.6   0.000656   0.000468  -2.422716  -2.021539     0.26 (  54->  73)    0.16 (  56->  75)    0.08 (  54->  74)
  92   8.464     146.5   0.004227   0.003117  -0.730971  -0.969292     0.05 (  63->  75)    0.04 (  67->  75)    0.03 (  53->  73)
  93   8.501     145.9   0.007315   0.007813   7.034670   7.274366     0.12 (  64->  74)    0.05 (  62->  75)    0.05 (  62->  74)
  94   8.518     145.6   0.009879   0.009465  -16.671278  -15.465672     0.06 (  70->  97)    0.06 (  70->  82)    0.05 (  66->  78)
  95   8.554     144.9   0.030502   0.027721  22.778110  20.389598     0.05 (  70->  77)    0.05 (  71->  97)    0.05 (  66->  78)
  96   8.570     144.7   0.075906   0.068767  -21.165710  -19.144314     0.05 (  63->  75)    0.05 (  63->  74)    0.05 (  62->  74)
  97   8.587     144.4   0.014441   0.014755  14.327698  13.335389     0.06 (  71->  98)    0.05 (  71-> 102)    0.05 (  71->  99)
  98   8.613     143.9   0.182166   0.175231  -33.721627  -33.157645     0.30 (  59->  76)    0.05 (  62->  73)    0.04 (  58->  74)
  99   8.615     143.9   0.093004   0.089400  -7.003990  -6.938969     0.52 (  59->  76)    0.03 (  62->  73)    0.03 (  59->  77)
 100   8.642     143.5   0.059982   0.056725  -30.008337  -28.676269     0.12 (  65->  73)    0.10 (  70->  76)    0.08 (  63->  75)
 101   8.644     143.4   0.044573   0.042108  -7.237512  -6.985967     0.12 (  67->  80)    0.10 (  66->  80)    0.05 (  69->  87)
 102   8.660     143.2   0.011775   0.010777   3.703236   2.601446     0.08 (  70->  76)    0.07 (  65->  73)    0.06 (  60->  78)
 103   8.680     142.8   0.103255   0.095375  -3.615326  -5.625475     0.07 (  53->  73)    0.05 (  60->  75)    0.05 (  70->  84)
 104   8.704     142.4   0.024138   0.023671  -7.927039  -7.726545     0.40 (  69->  76)    0.15 (  70->  76)    0.12 (  65->  73)
 105   8.709     142.4   0.063907   0.060090  22.935614  21.135691     0.08 (  67->  81)    0.05 (  71-> 103)    0.05 (  66->  81)
 106   8.721     142.2   0.060966   0.057365  16.523855  15.339527     0.06 (  71-> 103)    0.05 (  68->  79)    0.03 (  70->  87)
 107   8.744     141.8   0.007741   0.006568  19.659119  17.663475     0.05 (  69->  93)    0.05 (  65->  81)    0.05 (  53->  73)
 108   8.770     141.4   0.039435   0.035009  14.882293  13.921192     0.15 (  53->  73)    0.03 (  69->  93)    0.03 (  53->  74)
 109   8.805     140.8   0.027847   0.026806   6.820468   6.745625     0.07 (  63->  75)    0.03 (  67->  75)    0.02 (  69->  87)
 110   8.814     140.7   0.007091   0.005629   4.028655   3.609124     0.09 (  69->  93)    0.04 (  63->  75)    0.04 (  67->  80)
 111   8.821     140.6   0.014773   0.014196   8.396743   8.055289     0.10 (  47->  72)    0.09 (  48->  72)    0.08 (  48->  73)
 112   8.829     140.4   0.017035   0.015054  32.925404  31.416468     0.06 (  71->  99)    0.03 (  69->  95)    0.03 (  48->  72)
 113   8.872     139.8   0.034744   0.030192   0.825997   0.888171     0.09 (  69->  86)    0.05 (  71->  99)    0.04 (  70->  86)
 114   8.892     139.4   0.117112   0.114128  -46.906495  -45.888108     0.08 (  64->  73)    0.07 (  66->  79)    0.07 (  62->  74)
 115   8.937     138.7   0.004594   0.003480  -0.546982  -0.383059     0.10 (  69->  91)    0.06 (  60->  72)    0.05 (  70->  91)
 116   8.939     138.7   0.001881   0.001701  -6.899981  -6.945156     0.22 (  60->  72)    0.07 (  60->  78)    0.06 (  60->  74)
 117   8.967     138.3   0.009661   0.009070  -0.309161  -0.831343     0.09 (  56->  75)    0.05 (  66->  79)    0.04 (  60->  72)
 118   8.971     138.2   0.007885   0.007727  -9.630677  -9.268106     0.12 (  56->  75)    0.05 (  60->  72)    0.04 (  66->  79)
 119   8.979     138.1   0.044075   0.043582  -18.113782  -17.714481     0.09 (  68->  76)    0.09 (  69->  76)    0.06 (  64->  76)
 120   8.998     137.8   0.021880   0.020044   6.906449   6.416793     0.07 (  71-> 102)    0.05 (  71-> 100)    0.04 (  71->  98)
 121   9.013     137.6   0.021203   0.019734  22.152307  21.081938     0.07 (  71-> 103)    0.04 (  65->  81)    0.03 (  68->  76)
 122   9.038     137.2   0.002817   0.002664  -4.908984  -3.860002     0.05 (  68->  76)    0.04 (  64->  73)    0.04 (  66->  74)
 123   9.071     136.7   0.019103   0.017615   4.541673   4.661824     0.06 (  70->  91)    0.04 (  64->  77)    0.03 (  57->  75)
 124   9.079     136.6   0.001912   0.001473   8.476432   7.080070     0.05 (  40->  72)    0.05 (  46->  72)    0.04 (  69->  97)
 125   9.083     136.5   0.003023   0.002788  -9.298383  -8.852783     0.14 (  40->  72)    0.14 (  46->  72)    0.05 (  60->  72)
 126   9.120     135.9   0.011813   0.009619  -10.493409  -9.287172     0.05 (  57->  75)    0.05 (  69->  97)    0.04 (  64->  77)
 127   9.156     135.4   0.007612   0.007538  25.233105  25.135089     0.07 (  71-> 101)    0.07 (  69->  97)    0.04 (  71-> 102)
 128   9.177     135.1   0.003192   0.002076  -13.102884  -10.664119     0.03 (  68->  87)    0.03 (  71-> 104)    0.03 (  71->  88)
 129   9.189     134.9   0.000664   0.000650   0.061870  -0.791293     0.06 (  66->  79)    0.04 (  67->  77)    0.04 (  68->  79)
 130   9.203     134.7   0.003295   0.003162  13.715516  13.344282     0.15 (  55->  75)    0.09 (  55->  74)    0.09 (  60->  72)
 131   9.223     134.4   0.005658   0.005609   8.771174   8.461603     0.10 (  71-> 104)    0.03 (  71-> 101)    0.02 (  67->  89)
 132   9.249     134.1   0.003087   0.002606  -4.263017  -3.470198     0.14 (  66->  80)    0.05 (  64->  80)    0.05 (  71->  80)
 133   9.254     134.0   0.000576   0.000445  -0.005325   0.582130     0.09 (  56->  78)    0.07 (  54->  75)    0.05 (  66->  80)
 134   9.262     133.9   0.000852   0.000676   3.451946   2.967746     0.07 (  56->  78)    0.05 (  54->  75)    0.04 (  71->  89)
 135   9.278     133.6   0.026006   0.023330   5.555371   7.150214     0.10 (  56->  78)    0.04 (  53->  75)    0.04 (  70->  99)
 136   9.285     133.5   0.019829   0.017817  -5.759809  -6.046154     0.06 (  52->  73)    0.04 (  70->  99)    0.04 (  58->  76)
 137   9.292     133.4   0.004004   0.004319   0.212811  -0.046813     0.07 (  55->  75)    0.07 (  52->  73)    0.05 (  56->  78)
 138   9.296     133.4   0.018353   0.015810  -17.435236  -17.236814     0.07 (  52->  73)    0.03 (  57->  72)    0.02 (  58->  72)
 139   9.311     133.2   0.008475   0.007863   5.297426   4.422679     0.04 (  65->  81)    0.03 (  70->  99)    0.03 (  71-> 106)
 140   9.326     132.9   0.000110   0.000122   1.052666   1.113767     0.06 (  65->  81)    0.06 (  56->  72)    0.04 (  57->  72)
 141   9.330     132.9   0.012989   0.010619   3.080924   2.950958     0.10 (  56->  72)    0.05 (  65->  81)    0.03 (  58->  76)
 142   9.336     132.8   0.010461   0.008767  -11.603492  -10.559431     0.10 (  58->  76)    0.09 (  56->  72)    0.05 (  62->  76)
 143   9.362     132.4   0.008295   0.006171   8.943635   8.158865     0.07 (  57->  72)    0.06 (  53->  75)    0.05 (  68->  79)
 144   9.408     131.8   0.006517   0.006712  -27.912271  -28.721322     0.05 (  69->  99)    0.04 (  69->  94)    0.04 (  70->  91)
 145   9.423     131.6   0.012349   0.010116   0.895761   0.588540     0.04 (  70->  81)    0.04 (  68->  83)    0.04 (  67->  85)
 146   9.443     131.3   0.006780   0.005432  -11.602870  -10.689745     0.06 (  71-> 107)    0.03 (  71-> 101)    0.03 (  71->  99)
 147   9.452     131.2   0.001451   0.001206  -4.809498  -4.571139     0.16 (  56->  72)    0.11 (  47->  73)    0.07 (  45->  72)
 148   9.461     131.0   0.006508   0.006803   2.478596   2.275546     0.03 (  69->  94)    0.03 (  65->  89)    0.03 (  57->  72)
 149   9.480     130.8   0.009243   0.008646  -1.650215  -1.030414     0.05 (  70-> 102)    0.04 (  71-> 103)    0.03 (  68->  91)
 150   9.501     130.5   0.011582   0.010811   6.930107   5.136507     0.16 (  68->  76)    0.13 (  67->  76)    0.09 (  62->  76)
 151   9.529     130.1   0.010432   0.009564   4.833979   4.710609     0.09 (  60->  73)    0.09 (  60->  79)    0.05 (  60->  72)
 152   9.536     130.0   0.024296   0.020540  -23.818009  -22.288430     0.04 (  71-> 107)    0.03 (  60->  79)    0.03 (  60->  73)
 153   9.551     129.8   0.014035   0.011941  -2.415043  -1.435667     0.12 (  70->  81)    0.06 (  69->  81)    0.05 (  68->  82)
 154   9.564     129.6   0.016013   0.013957  26.713787  25.189223     0.06 (  65->  88)    0.05 (  65->  89)    0.03 (  62->  75)
 155   9.575     129.5   0.022906   0.021861  18.344723  17.601997     0.07 (  70->  81)    0.05 (  71-> 111)    0.04 (  69->  81)
 156   9.583     129.4   0.019658   0.019439  -3.017680  -2.462781     0.07 (  71-> 109)    0.06 (  62->  75)    0.04 (  69->  81)
 157   9.601     129.1   0.000926   0.000678  -5.171527  -4.347641     0.08 (  45->  73)    0.07 (  51->  74)    0.07 (  61->  73)
 158   9.603     129.1   0.005874   0.005333  -19.054281  -19.933487     0.06 (  65->  89)    0.03 (  48->  73)    0.03 (  65->  92)
 159   9.626     128.8   0.012836   0.011774  10.397214   9.061131     0.04 (  55->  72)    0.02 (  68->  89)    0.02 (  69->  91)
 160   9.632     128.7   0.001410   0.001074  -2.126095  -1.663585     0.15 (  55->  72)    0.07 (  55->  74)    0.04 (  51->  73)
 161   9.639     128.6   0.020033   0.019382  12.269940  11.018462     0.05 (  67->  83)    0.03 (  71-> 109)    0.03 (  68->  83)
 162   9.656     128.4   0.029143   0.026738   0.061815   2.648066     0.05 (  65->  74)    0.04 (  71-> 105)    0.03 (  67->  78)
 163   9.665     128.3   0.022222   0.018181  24.491226  21.331245     0.18 (  65->  74)    0.08 (  65->  84)    0.08 (  65->  73)
 164   9.674     128.2   0.002736   0.002529  -2.642473  -2.157823     0.06 (  69->  81)    0.04 (  65->  90)    0.03 (  70->  93)
 165   9.696     127.9   0.001830   0.001745   7.595241   6.685049     0.14 (  61->  73)    0.09 (  50->  74)    0.05 (  59->  73)
 166   9.699     127.8   0.009964   0.008023  -16.783184  -10.658179     0.04 (  69->  91)    0.04 (  68->  91)    0.04 (  69-> 101)
 167   9.718     127.6   0.012338   0.012433  13.741243  13.071105     0.06 (  63->  78)    0.05 (  63->  75)    0.05 (  62->  74)
 168   9.727     127.5   0.025556   0.024833  -11.240929  -11.838068     0.07 (  64->  75)    0.07 (  71-> 107)    0.03 (  62->  77)
 169   9.742     127.3   0.012379   0.011226  -19.485855  -18.607172     0.05 (  70-> 104)    0.04 (  63->  77)    0.03 (  71-> 107)
 170   9.756     127.1   0.033078   0.027480  29.955066  28.299915     0.03 (  71-> 110)    0.03 (  69->  99)    0.03 (  70->  81)
 171   9.760     127.0   0.008052   0.008406  -12.666629  -13.105970     0.18 (  61->  73)    0.07 (  50->  74)    0.06 (  48->  73)
 172   9.768     126.9   0.011319   0.009007  24.806171  22.285976     0.06 (  69-> 103)    0.04 (  63->  77)    0.04 (  71-> 109)
 173   9.807     126.4   0.000150   0.000236  -2.741399  -1.587578     0.04 (  70->  84)    0.03 (  67->  82)    0.03 (  71->  93)
 174   9.827     126.2   0.015154   0.013765  -39.193730  -37.591850     0.04 (  44->  73)    0.03 (  64->  75)    0.03 (  67->  86)
 175   9.830     126.1   0.016113   0.012536  17.810843  16.779790     0.08 (  44->  73)    0.04 (  69-> 101)    0.03 (  68->  91)
 176   9.835     126.1   0.000839   0.000663   1.434567   2.214777     0.05 (  44->  73)    0.03 (  68->  91)    0.03 (  71-> 105)
 177   9.847     125.9   0.041253   0.034182  12.959216  12.065114     0.03 (  63->  81)    0.02 (  63->  75)    0.02 (  69->  81)
 178   9.862     125.7   0.004668   0.004964  16.895435  17.661330     0.04 (  65->  90)    0.03 (  70-> 104)    0.03 (  53->  75)
 179   9.874     125.6   0.004371   0.002967  15.828621  11.096746     0.06 (  63->  78)    0.04 (  64->  75)    0.03 (  71-> 107)
 180   9.903     125.2   0.026855   0.021918  -51.491605  -46.479014     0.04 (  62->  79)    0.03 (  67->  79)    0.03 (  68->  79)
 181   9.912     125.1   0.015000   0.013435  -7.404648  -7.089688     0.05 (  46->  73)    0.05 (  34->  72)    0.02 (  50->  73)
 182   9.922     125.0   0.014559   0.013166  -9.236578  -9.107120     0.04 (  46->  73)    0.04 (  34->  72)    0.03 (  68->  79)
 183   9.941     124.7   0.009398   0.008010  29.882954  27.599324     0.03 (  71-> 100)    0.03 (  67->  92)    0.03 (  71-> 112)
 184   9.953     124.6   0.036953   0.034633  -25.163677  -25.319588     0.06 (  66->  75)    0.05 (  71-> 112)    0.04 (  67->  77)
 185   9.965     124.4   0.006951   0.005281  -29.004725  -25.000260     0.05 (  63->  77)    0.05 (  66->  75)    0.05 (  64->  75)
 186   9.970     124.4   0.001344   0.001057   2.608413   3.767167     0.06 (  51->  76)    0.05 (  47->  73)    0.05 (  51->  77)
 187   9.975     124.3   0.009456   0.008014  17.009784  17.103017     0.04 (  67->  75)    0.03 (  64->  75)    0.03 (  71-> 110)
 188   9.990     124.1   0.013372   0.012507  -30.335702  -29.456215     0.05 (  71-> 110)    0.03 (  69->  99)    0.03 (  71-> 108)

sTD-DFT done

Total run time:       23.379 sec

           *** ORCA-CIS/TD-DFT FINISHED WITHOUT ERROR ***


-------------------------------------------------------------------------------
                          DFT DISPERSION CORRECTION                            
                                                                               
                              DFTD3 V3.1  Rev 1                                
                              USING zero damping                               
-------------------------------------------------------------------------------
The omegaB97X-D3 functional is recognized. Fit by Chai et al.
Active option DFTDOPT                   ...         3   

molecular C6(AA) [au] = 31356.116631 


            DFT-D V3
 parameters
 s6 scaling factor         :     1.0000 
 rs6 scaling factor        :     1.2810 
 s8 scaling factor         :     1.0000 
 rs8 scaling factor        :     1.0940 
 Damping factor alpha6     :    14.0000 
 Damping factor alpha8     :    16.0000 
 ad hoc parameters k1-k3   :    16.0000     1.3333    -4.0000 

 Edisp/kcal,au: -13.573192640655  -0.021630256998 
 E6   /kcal   :  -6.415028324 
 E8   /kcal   :  -7.158164317 
 % E8         :  52.737513614 

-------------------------   ----------------
Dispersion correction           -0.021630257
-------------------------   ----------------


-------------------------   --------------------
FINAL SINGLE POINT ENERGY     -1389.727594567591
-------------------------   --------------------


                            ***************************************
                            *     ORCA property calculations      *
                            ***************************************

                                    ---------------------
                                    Active property flags
                                    ---------------------
   (+) Dipole Moment
   (+) Quadrupole Moment


------------------------------------------------------------------------------
                       ORCA ELECTRIC PROPERTIES CALCULATION
------------------------------------------------------------------------------

Dipole Moment Calculation                       ... on
Quadrupole Moment Calculation                   ... on
Polarizability Calculation                      ... off
GBWName                                         ... total_job2.gbw
Electron density file                           ... total_job2.scfp.tmp

-------------
DIPOLE MOMENT
-------------
                                X             Y             Z
Electronic contribution:     14.55607       4.84558       2.85878
Nuclear contribution   :    -15.90020      -6.23907      -3.23968
                        -----------------------------------------
Total Dipole Moment    :     -1.34413      -1.39349      -0.38090
                        -----------------------------------------
Magnitude (a.u.)       :      1.97322
Magnitude (Debye)      :      5.01552


------------------------
QUADRUPOLE MOMENT (A.U.)
------------------------

                XX           YY           ZZ           XY           XZ           YZ
  NUC     16082.32895   3300.79353    173.49641   2472.15295    641.84400    333.34406
  EL     -16192.76550  -3430.54494   -314.79836  -2488.83767   -650.58213   -332.75081
  TOT      -110.43656   -129.75141   -141.30195    -16.68472     -8.73813      0.59325

--------------------------------------------------------------------------
[[5425,1],0]: A high-performance Open MPI point-to-point messaging module
was unable to find any relevant network interfaces:

Module: OpenFabrics (openib)
  Host: cx1-103-18-3

Another transport will be used instead, although this may result in
lower performance.
--------------------------------------------------------------------------

Timings for individual modules:

Sum of individual times         ...      139.365 sec (=   2.323 min)
GTO integral calculation        ...        5.021 sec (=   0.084 min)   3.6 %
SCF iterations                  ...      109.475 sec (=   1.825 min)  78.6 %
CIS module                      ...       24.869 sec (=   0.414 min)  17.8 %



                             ****ORCA TERMINATED NORMALLY****
TOTAL RUN TIME: 0 days 0 hours 8 minutes 43 seconds 46 msec
