
                                 *****************
                                 * O   R   C   A *
                                 *****************

           --- An Ab Initio, DFT and Semiempirical electronic structure package ---

                  #######################################################
                  #                        -***-                        #
                  #  Department of molecular theory and spectroscopy    #
                  #              Directorship: Frank Neese              #
                  # Max Planck Institute for Chemical Energy Conversion #
                  #                  D-45470 Muelheim/Ruhr              #
                  #                       Germany                       #
                  #                                                     #
                  #                  All rights reserved                #
                  #                        -***-                        #
                  #######################################################


                         Program Version 4.0.0 -  RELEASE  -


 With contributions from (in alphabetic order):
   Daniel Aravena         : Magnetic Properties
   Michael Atanasov       : Ab Initio Ligand Field Theory
   Ute Becker             : Parallelization
   Martin Brehm           : Molecular dynamics
   Dmytro Bykov           : SCF Hessian
   Vijay G. Chilkuri      : MRCI spin determinant printing
   Dipayan Datta          : RHF DLPNO-CCSD density
   Achintya Kumar Dutta   : EOM-CC, STEOM-CC
   Dmitry Ganyushin       : Spin-Orbit,Spin-Spin,Magnetic field MRCI
   Yang Guo               : DLPNO-NEVPT2, CIM, IAO-localization
   Andreas Hansen         : Spin unrestricted coupled pair/coupled cluster methods
   Lee Huntington         : MR-EOM, pCC
   Robert Izsak           : Overlap fitted RIJCOSX, COSX-SCS-MP3, EOM
   Christian Kollmar      : KDIIS, OOCD, Brueckner-CCSD(T), CCSD density
   Simone Kossmann        : Meta GGA functionals, TD-DFT gradient, OOMP2, MP2 Hessian
   Martin Krupicka        : AUTO-CI
   Dagmar Lenk            : GEPOL surface
   Dimitrios Liakos       : Extrapolation schemes; parallel MDCI
   Dimitrios Manganas     : ROCIS; embedding schemes
   Dimitrios Pantazis     : SARC Basis sets
   Taras Petrenko         : DFT Hessian,TD-DFT gradient, ASA, ECA, R-Raman, ABS, FL, XAS/XES, NRVS
   Peter Pinski           : DLPNO-MP2
   Christoph Reimann      : Effective Core Potentials
   Marius Retegan         : Local ZFS, SOC
   Christoph Riplinger    : Optimizer, TS searches, QM/MM, DLPNO-CCSD(T), (RO)-DLPNO pert. Triples
   Tobias Risthaus        : Range-separated hybrids, TD-DFT gradient, RPA, STAB
   Michael Roemelt        : Restricted open shell CIS
   Masaaki Saitow         : Open-shell DLPNO
   Barbara Sandhoefer     : DKH picture change effects
   Kantharuban Sivalingam : CASSCF convergence, NEVPT2, FIC-MRCI
   Georgi Stoychev        : AutoAux
   Boris Wezisla          : Elementary symmetry handling
   Frank Wennmohs         : Technical directorship


 We gratefully acknowledge several colleagues who have allowed us to
 interface, adapt or use parts of their codes:
   Stefan Grimme, W. Hujo, H. Kruse,             : VdW corrections, initial TS optimization,
                  C. Bannwarth                     DFT functionals, gCP, sTDA/sTD-DF
   Ed Valeev                                     : LibInt (2-el integral package), F12 methods
   Garnet Chan, S. Sharma, J. Yang, R. Olivares  : DMRG
   Ulf Ekstrom                                   : XCFun DFT Library
   Mihaly Kallay                                 : mrcc  (arbitrary order and MRCC methods)
   Jiri Pittner, Ondrej Demel                    : Mk-CCSD
   Frank Weinhold                                : gennbo (NPA and NBO analysis)
   Christopher J. Cramer and Donald G. Truhlar   : smd solvation model


 Your calculation uses the libint2 library for the computation of 2-el integrals
 For citations please refer to: http://libint.valeyev.net

 This ORCA versions uses:
   CBLAS   interface :  Fast vector & matrix operations
   LAPACKE interface :  Fast linear algebra routines
   SCALAPACK package :  Parallel linear algebra routines


Your calculation utilizes the atom-pairwise dispersion correction
with the zero-damping scheme (D30)
Cite in your paper:
S.Grimme, J.Antony, S.Ehrlich and H.Krieg, J.Chem.Phys., 132, (2010), 154104 
   

XCFun DFT library Copyright 2009-2010 Ulf Ekstrom and contributors.
See http://admol.org/xcfun for more information. This is free soft-
ware; see the source code for copying conditions. There is ABSOLUTELY
NO WARRANTY; not even for MERCHANTABILITY or FITNESS FOR A PARTICULAR
PURPOSE. For details see the documentation. Scientific users of this 
library should cite U. Ekstrom, L. Visscher, R. Bast, A. J. Thorvald-
sen and K. Ruud; J.Chem.Theor.Comp. 2010, DOI: 10.1021/ct100117s
XCFun Version 0.99 
Your calculation utilizes the basis: def2-TZVP
   F. Weigend and R. Ahlrichs, Phys. Chem. Chem. Phys. 7, 3297 (2005).

Your calculation utilizes the auxiliary basis: def2/J
   F. Weigend, Phys. Chem. Chem. Phys. 8, 1057 (2006).

================================================================================
                                        WARNINGS
                       Please study these warnings very carefully!
================================================================================

Warning: TCutStore was < 0. Adjusted to Thresh (uncritical)
INFO   : Checking CIS options ...

WARNING: CIS/ROCIS methods need fully converged wavefunctions
  ===> : Setting SCFConvForced true
         You can overwrite this default with %scf ConvForced false 


INFO   : the flag for use of LIBINT has been found!

Your calculation utilizes the atom-pairwise dispersion correction
with the zero-damping scheme (D30)
Cite in your paper:
S.Grimme, J.Antony, S.Ehrlich and H.Krieg, J.Chem.Phys., 132, (2010), 154104 
   

XCFun DFT library Copyright 2009-2010 Ulf Ekstrom and contributors.
See http://admol.org/xcfun for more information. This is free soft-
ware; see the source code for copying conditions. There is ABSOLUTELY
NO WARRANTY; not even for MERCHANTABILITY or FITNESS FOR A PARTICULAR
PURPOSE. For details see the documentation. Scientific users of this 
library should cite U. Ekstrom, L. Visscher, R. Bast, A. J. Thorvald-
sen and K. Ruud; J.Chem.Theor.Comp. 2010, DOI: 10.1021/ct100117s
XCFun Version 0.99 
Your calculation utilizes the basis: def2-TZVP
   F. Weigend and R. Ahlrichs, Phys. Chem. Chem. Phys. 7, 3297 (2005).

Your calculation utilizes the auxiliary basis: def2/J
   F. Weigend, Phys. Chem. Chem. Phys. 8, 1057 (2006).

================================================================================
                                        WARNINGS
                       Please study these warnings very carefully!
================================================================================

INFO   : Checking CIS options ...

INFO   : the flag for use of LIBINT has been found!

================================================================================
                                       INPUT FILE
================================================================================
NAME = total.inp
|  1> # 
|  2> !wB97X-D3 def2-TZVP def2/J RIJCOSX Grid5 FinalGrid6 TightSCF
|  3> %pal 
|  4>  nprocs 24
|  5> end
|  6> %tddft
|  7>   Mode sTDDFT
|  8>   nroots 2
|  9>   Ethresh 10.0
| 10>   maxcore 5000
| 11>   triplets true
| 12> end
| 13> * xyz 0 1 
| 14> C -4.36223762 -2.57067776 1.21410517
| 15> C -3.64695599 -1.53267635 0.62288817
| 16> C -4.34857165 -0.50763252 -0.04020383
| 17> C -5.77017764 -0.57020946 -0.06921872
| 18> C -6.49312564 -1.61890597 0.51977252
| 19> C -5.76653756 -2.61877289 1.16095355
| 20> C -3.97362675 0.71581320 -0.73198229
| 21> C -5.19719826 1.33592024 -1.12482364
| 22> N -6.25818741 0.54114096 -0.73387081
| 23> C -5.25361221 2.57336192 -1.78258802
| 24> C -4.04521890 3.21727848 -2.04033036
| 25> C -2.82775315 2.63589688 -1.66556371
| 26> C -2.75230018 1.38210354 -1.02832665
| 27> H -1.90394262 3.16081809 -1.89806762
| 28> H -7.23660157 0.75752535 -0.87977567
| 29> H -4.04281757 4.18103571 -2.54116564
| 30> H -2.56215273 -1.52143955 0.67310508
| 31> H -7.57878916 -1.64496324 0.48029601
| 32> H -6.29162223 -3.44712025 1.62914486
| 33> H -3.82527502 -3.36457089 1.72598238
| 34> S 3.24730029 -1.14214506 0.21816546
| 35> C 4.67246030 -0.10627423 0.45897637
| 36> N 4.39509938 1.18902560 0.36644770
| 37> N 3.08282188 1.45260895 0.10768575
| 38> C 2.33618933 0.36021752 -0.00199700
| 39> C 0.91742471 0.37585852 -0.27304010
| 40> N 0.17853063 -0.72058216 -0.38667420
| 41> N -1.13790685 -0.46062858 -0.64423127
| 42> C -1.42823004 0.82976197 -0.72582412
| 43> S -0.00194288 1.87014501 -0.49010669
| 44> N 9.29508043 0.69510002 1.31842565
| 45> C 8.41889314 -0.31938751 1.18175339
| 46> C 7.13349260 0.24322143 0.91886541
| 47> N 7.26074368 1.58057754 0.90252055
| 48> O 8.56953386 1.82171414 1.14542734
| 49> C 6.00532019 -0.62504306 0.72956104
| 50> C 6.28407722 -1.98669579 0.82424419
| 51> N 7.52190014 -2.52696181 1.07742706
| 52> C 8.57371623 -1.73807135 1.25455023
| 53> H 5.47046826 -2.70791020 0.69053648
| 54> H -6.20343922 3.01575544 -2.06932402
| 55> H 9.54497052 -2.20401187 1.45448001
| 56> *
| 57> $new_job
| 58> # 
| 59> !wB97X-D3 def2-TZVP def2/J RIJCOSX Grid5 FinalGrid6 TightSCF
| 60> %pal 
| 61>  nprocs 24
| 62> end
| 63> %elprop
| 64>    dipole     true
| 65>    quadrupole true
| 66> end
| 67> %tddft
| 68>   Mode sTDDFT
| 69>   nroots 2
| 70>   Ethresh 10.0
| 71>   maxcore 5000
| 72> end
| 73> * xyz 0 1 
| 74> C -4.36223762 -2.57067776 1.21410517
| 75> C -3.64695599 -1.53267635 0.62288817
| 76> C -4.34857165 -0.50763252 -0.04020383
| 77> C -5.77017764 -0.57020946 -0.06921872
| 78> C -6.49312564 -1.61890597 0.51977252
| 79> C -5.76653756 -2.61877289 1.16095355
| 80> C -3.97362675 0.71581320 -0.73198229
| 81> C -5.19719826 1.33592024 -1.12482364
| 82> N -6.25818741 0.54114096 -0.73387081
| 83> C -5.25361221 2.57336192 -1.78258802
| 84> C -4.04521890 3.21727848 -2.04033036
| 85> C -2.82775315 2.63589688 -1.66556371
| 86> C -2.75230018 1.38210354 -1.02832665
| 87> H -1.90394262 3.16081809 -1.89806762
| 88> H -7.23660157 0.75752535 -0.87977567
| 89> H -4.04281757 4.18103571 -2.54116564
| 90> H -2.56215273 -1.52143955 0.67310508
| 91> H -7.57878916 -1.64496324 0.48029601
| 92> H -6.29162223 -3.44712025 1.62914486
| 93> H -3.82527502 -3.36457089 1.72598238
| 94> S 3.24730029 -1.14214506 0.21816546
| 95> C 4.67246030 -0.10627423 0.45897637
| 96> N 4.39509938 1.18902560 0.36644770
| 97> N 3.08282188 1.45260895 0.10768575
| 98> C 2.33618933 0.36021752 -0.00199700
| 99> C 0.91742471 0.37585852 -0.27304010
|100> N 0.17853063 -0.72058216 -0.38667420
|101> N -1.13790685 -0.46062858 -0.64423127
|102> C -1.42823004 0.82976197 -0.72582412
|103> S -0.00194288 1.87014501 -0.49010669
|104> N 9.29508043 0.69510002 1.31842565
|105> C 8.41889314 -0.31938751 1.18175339
|106> C 7.13349260 0.24322143 0.91886541
|107> N 7.26074368 1.58057754 0.90252055
|108> O 8.56953386 1.82171414 1.14542734
|109> C 6.00532019 -0.62504306 0.72956104
|110> C 6.28407722 -1.98669579 0.82424419
|111> N 7.52190014 -2.52696181 1.07742706
|112> C 8.57371623 -1.73807135 1.25455023
|113> H 5.47046826 -2.70791020 0.69053648
|114> H -6.20343922 3.01575544 -2.06932402
|115> H 9.54497052 -2.20401187 1.45448001
|116> *
|117> 
|118>                          ****END OF INPUT****
================================================================================


                 $$$$$$$$$$$$$$$$$$$$$$$$$$$$$$$$$$$$$$$$$$$$$$ 
                 $ THERE ARE  2 JOBS TO BE PROCESSED THIS RUN $
                 $$$$$$$$$$$$$$$$$$$$$$$$$$$$$$$$$$$$$$$$$$$$$$ 




                 $$$$$$$$$$$$$$$$  JOB NUMBER  1 $$$$$$$$$$$$$$


                       ****************************
                       * Single Point Calculation *
                       ****************************

---------------------------------
CARTESIAN COORDINATES (ANGSTROEM)
---------------------------------
  C     -4.362238   -2.570678    1.214105
  C     -3.646956   -1.532676    0.622888
  C     -4.348572   -0.507633   -0.040204
  C     -5.770178   -0.570209   -0.069219
  C     -6.493126   -1.618906    0.519773
  C     -5.766538   -2.618773    1.160954
  C     -3.973627    0.715813   -0.731982
  C     -5.197198    1.335920   -1.124824
  N     -6.258187    0.541141   -0.733871
  C     -5.253612    2.573362   -1.782588
  C     -4.045219    3.217278   -2.040330
  C     -2.827753    2.635897   -1.665564
  C     -2.752300    1.382104   -1.028327
  H     -1.903943    3.160818   -1.898068
  H     -7.236602    0.757525   -0.879776
  H     -4.042818    4.181036   -2.541166
  H     -2.562153   -1.521440    0.673105
  H     -7.578789   -1.644963    0.480296
  H     -6.291622   -3.447120    1.629145
  H     -3.825275   -3.364571    1.725982
  S      3.247300   -1.142145    0.218165
  C      4.672460   -0.106274    0.458976
  N      4.395099    1.189026    0.366448
  N      3.082822    1.452609    0.107686
  C      2.336189    0.360218   -0.001997
  C      0.917425    0.375859   -0.273040
  N      0.178531   -0.720582   -0.386674
  N     -1.137907   -0.460629   -0.644231
  C     -1.428230    0.829762   -0.725824
  S     -0.001943    1.870145   -0.490107
  N      9.295080    0.695100    1.318426
  C      8.418893   -0.319388    1.181753
  C      7.133493    0.243221    0.918865
  N      7.260744    1.580578    0.902521
  O      8.569534    1.821714    1.145427
  C      6.005320   -0.625043    0.729561
  C      6.284077   -1.986696    0.824244
  N      7.521900   -2.526962    1.077427
  C      8.573716   -1.738071    1.254550
  H      5.470468   -2.707910    0.690536
  H     -6.203439    3.015755   -2.069324
  H      9.544971   -2.204012    1.454480

----------------------------
CARTESIAN COORDINATES (A.U.)
----------------------------
  NO LB      ZA    FRAG     MASS         X           Y           Z
   0 C     6.0000    0    12.011   -8.243434   -4.857877    2.294326
   1 C     6.0000    0    12.011   -6.891748   -2.896339    1.177088
   2 C     6.0000    0    12.011   -8.217609   -0.959286   -0.075974
   3 C     6.0000    0    12.011  -10.904055   -1.077540   -0.130804
   4 C     6.0000    0    12.011  -12.270229   -3.059289    0.982228
   5 C     6.0000    0    12.011  -10.897177   -4.948764    2.193884
   6 C     6.0000    0    12.011   -7.509066    1.352691   -1.383246
   7 C     6.0000    0    12.011   -9.821281    2.524523   -2.125609
   8 N     7.0000    0    14.007  -11.826260    1.022608   -1.386815
   9 C     6.0000    0    12.011   -9.927888    4.862949   -3.368603
  10 C     6.0000    0    12.011   -7.644356    6.079775   -3.855666
  11 C     6.0000    0    12.011   -5.343679    4.981123   -3.147459
  12 C     6.0000    0    12.011   -5.201094    2.611797   -1.943256
  13 H     1.0000    0     1.008   -3.597930    5.973081   -3.586828
  14 H     1.0000    0     1.008  -13.675195    1.431515   -1.662535
  15 H     1.0000    0     1.008   -7.639818    7.901012   -4.802107
  16 H     1.0000    0     1.008   -4.841767   -2.875104    1.271984
  17 H     1.0000    0     1.008  -14.321836   -3.108530    0.907628
  18 H     1.0000    0     1.008  -11.889443   -6.514113    3.078638
  19 H     1.0000    0     1.008   -7.228722   -6.358118    3.261634
  20 S    16.0000    0    32.060    6.136508   -2.158341    0.412273
  21 C     6.0000    0    12.011    8.829670   -0.200829    0.867340
  22 N     7.0000    0    14.007    8.305534    2.246933    0.692486
  23 N     7.0000    0    14.007    5.825689    2.745033    0.203497
  24 C     6.0000    0    12.011    4.414758    0.680712   -0.003774
  25 C     6.0000    0    12.011    1.733681    0.710270   -0.515971
  26 N     7.0000    0    14.007    0.337374   -1.361703   -0.730708
  27 N     7.0000    0    14.007   -2.150332   -0.870462   -1.217421
  28 C     6.0000    0    12.011   -2.698964    1.568023   -1.371609
  29 S    16.0000    0    32.060   -0.003672    3.534062   -0.926167
  30 N     7.0000    0    14.007   17.565156    1.313549    2.491463
  31 C     6.0000    0    12.011   15.909402   -0.603555    2.233190
  32 C     6.0000    0    12.011   13.480347    0.459622    1.736404
  33 N     7.0000    0    14.007   13.720817    2.986859    1.705517
  34 O     8.0000    0    15.999   16.194072    3.442541    2.164544
  35 C     6.0000    0    12.011   11.348411   -1.181160    1.378671
  36 C     6.0000    0    12.011   11.875185   -3.754311    1.557596
  37 N     7.0000    0    14.007   14.214331   -4.775266    2.036042
  38 C     6.0000    0    12.011   16.201976   -3.284479    2.370756
  39 H     1.0000    0     1.008   10.337687   -5.117209    1.304925
  40 H     1.0000    0     1.008  -11.722801    5.698952   -3.910456
  41 H     1.0000    0     1.008   18.037380   -4.164979    2.748569

--------------------------------
INTERNAL COORDINATES (ANGSTROEM)
--------------------------------
 C      0   0   0     0.000000000000     0.00000000     0.00000000
 C      1   0   0     1.392340575602     0.00000000     0.00000000
 C      2   1   0     1.408073289372   119.12362783     0.00000000
 C      3   2   1     1.423278373357   118.37814106     0.50518407
 C      4   3   2     1.403327781235   122.60616236   359.13222889
 C      5   4   3     1.392399802119   117.45597126     0.54634573
 C      3   2   1     1.454634162098   135.05591186   178.50515627
 C      7   3   2     1.426879219630   105.98694011   182.65538559
 N      8   7   3     1.382105710726   109.29872824   358.70414887
 C      8   7   3     1.402532860489   123.16448109   177.67557372
 C     10   8   7     1.393296106979   117.36289360   359.22054976
 C     11  10   8     1.400241928809   120.84282039     0.65636924
 C     12  11  10     1.408460848142   122.49842418     0.60153048
 H     12  11  10     1.087670097140   118.74343186   179.00708905
 H      9   8   7     1.012622684368   125.31632924   179.10215572
 H     11  10   8     1.086126025126   119.82178117   180.44469849
 H      2   1   3     1.086023073710   120.08130760   180.20869210
 H      5   4   3     1.086693450252   121.15470765   180.23372139
 H      6   5   4     1.086773372073   119.57683772   179.98063978
 H      1   2   3     1.086560359012   119.39754572   179.93166493
 S     17   2   1     5.839570083455   172.21989353   145.00898730
 C     21  17   2     1.778229266693   145.54816843    86.87585361
 N     22  21  17     1.327890162744   113.04131172   332.49810328
 N     23  22  21     1.363270393639   113.75882704     0.00000000
 C     24  23  22     1.327708366587   113.44784185     0.00000000
 C     25  24  23     1.444507545810   123.98093812   179.97286707
 N     26  25  24     1.327049107946   123.64138058   179.71746963
 N     27  26  25     1.366352497275   113.29111255   179.99760262
 C     28  27  26     1.325161393700   114.07609371   359.72538527
 S     26  25  24     1.767836752710   122.88646325   359.88594434
 N     22  21  17     4.769640512632   154.02966060   152.48971374
 C     31  22  21     1.347430303332    39.19510162     0.00000000
 C     32  31  22     1.427548057905   107.90670785     0.00000000
 N     33  32  31     1.343495945942   108.01481168     0.00000000
 O     31  22  21     1.351149738513    66.20852310   180.01154526
 C     33  32  31     1.436138000257   119.56040973   179.99983918
 C     36  33  32     1.393114689387   115.13690793     0.00000000
 N     37  36  33     1.374115904611   125.24446776     0.00000000
 C     38  37  36     1.326664185999   120.33083443     0.00000000
 H     37  36  33     1.095439417173   119.11724542   180.00441690
 H     10   8   7     1.086324495333   121.21562811   179.86882361
 H     39  38  37     1.095631042346   118.31403623   180.00055281

---------------------------
INTERNAL COORDINATES (A.U.)
---------------------------
 C      0   0   0     0.000000000000     0.00000000     0.00000000
 C      1   0   0     2.631142373033     0.00000000     0.00000000
 C      2   1   0     2.660872893402   119.12362783     0.00000000
 C      3   2   1     2.689606337977   118.37814106     0.50518407
 C      4   3   2     2.651905182658   122.60616236   359.13222889
 C      5   4   3     2.631254294931   117.45597126     0.54634573
 C      3   2   1     2.748860191411   135.05591186   178.50515627
 C      7   3   2     2.696410951283   105.98694011   182.65538559
 N      8   7   3     2.611801281400   109.29872824   358.70414887
 C      8   7   3     2.650403000150   123.16448109   177.67557372
 C     10   8   7     2.632948065650   117.36289360   359.22054976
 C     11  10   8     2.646073766682   120.84282039     0.65636924
 C     12  11  10     2.661605273338   122.49842418     0.60153048
 H     12  11  10     2.055398607650   118.74343186   179.00708905
 H      9   8   7     1.913579550451   125.31632924   179.10215572
 H     11  10   8     2.052480734412   119.82178117   180.44469849
 H      2   1   3     2.052286184432   120.08130760   180.20869210
 H      5   4   3     2.053553012502   121.15470765   180.23372139
 H      6   5   4     2.053704042857   119.57683772   179.98063978
 H      1   2   3     2.053301506509   119.39754572   179.93166493
 S     17   2   1    11.035188197569   172.21989353   145.00898730
 C     21  17   2     3.360366317373   145.54816843    86.87585361
 N     22  21  17     2.509348743515   113.04131172   332.49810328
 N     23  22  21     2.576207690460   113.75882704     0.00000000
 C     24  23  22     2.509005198565   113.44784185     0.00000000
 C     25  24  23     2.729723659964   123.98093812   179.97286707
 N     26  25  24     2.507759380283   123.64138058   179.71746963
 N     27  26  25     2.582032022250   113.29111255   179.99760262
 C     28  27  26     2.504192117338   114.07609371   359.72538527
 S     26  25  24     3.340727312103   122.88646325   359.88594434
 N     22  21  17     9.013314326130   154.02966060   152.48971374
 C     31  22  21     2.546274257843    39.19510162     0.00000000
 C     32  31  22     2.697674872452   107.90670785     0.00000000
 N     33  32  31     2.538839399865   108.01481168     0.00000000
 O     31  22  21     2.553302971710    66.20852310   180.01154526
 C     33  32  31     2.713907511002   119.56040973   179.99983918
 C     36  33  32     2.632605236083   115.13690793     0.00000000
 N     37  36  33     2.596702735981   125.24446776     0.00000000
 C     38  37  36     2.507031983220   120.33083443     0.00000000
 H     37  36  33     2.070080494760   119.11724542   180.00441690
 H     10   8   7     2.052855788749   121.21562811   179.86882361
 H     39  38  37     2.070442613857   118.31403623   180.00055281

---------------------
BASIS SET INFORMATION
---------------------
There are 5 groups of distinct atoms

 Group   1 Type C   : 11s6p2d1f contracted to 5s3p2d1f pattern {62111/411/11/1}
 Group   2 Type N   : 11s6p2d1f contracted to 5s3p2d1f pattern {62111/411/11/1}
 Group   3 Type H   : 5s1p contracted to 3s1p pattern {311/1}
 Group   4 Type S   : 14s9p3d1f contracted to 5s5p2d1f pattern {73211/51111/21/1}
 Group   5 Type O   : 11s6p2d1f contracted to 5s3p2d1f pattern {62111/411/11/1}

Atom   0C    basis set group =>   1
Atom   1C    basis set group =>   1
Atom   2C    basis set group =>   1
Atom   3C    basis set group =>   1
Atom   4C    basis set group =>   1
Atom   5C    basis set group =>   1
Atom   6C    basis set group =>   1
Atom   7C    basis set group =>   1
Atom   8N    basis set group =>   2
Atom   9C    basis set group =>   1
Atom  10C    basis set group =>   1
Atom  11C    basis set group =>   1
Atom  12C    basis set group =>   1
Atom  13H    basis set group =>   3
Atom  14H    basis set group =>   3
Atom  15H    basis set group =>   3
Atom  16H    basis set group =>   3
Atom  17H    basis set group =>   3
Atom  18H    basis set group =>   3
Atom  19H    basis set group =>   3
Atom  20S    basis set group =>   4
Atom  21C    basis set group =>   1
Atom  22N    basis set group =>   2
Atom  23N    basis set group =>   2
Atom  24C    basis set group =>   1
Atom  25C    basis set group =>   1
Atom  26N    basis set group =>   2
Atom  27N    basis set group =>   2
Atom  28C    basis set group =>   1
Atom  29S    basis set group =>   4
Atom  30N    basis set group =>   2
Atom  31C    basis set group =>   1
Atom  32C    basis set group =>   1
Atom  33N    basis set group =>   2
Atom  34O    basis set group =>   5
Atom  35C    basis set group =>   1
Atom  36C    basis set group =>   1
Atom  37N    basis set group =>   2
Atom  38C    basis set group =>   1
Atom  39H    basis set group =>   3
Atom  40H    basis set group =>   3
Atom  41H    basis set group =>   3
-------------------------------
AUXILIARY BASIS SET INFORMATION
-------------------------------
There are 5 groups of distinct atoms

 Group   1 Type C   : 12s5p4d2f1g contracted to 6s4p3d1f1g pattern {711111/2111/211/2/1}
 Group   2 Type N   : 12s5p4d2f1g contracted to 6s4p3d1f1g pattern {711111/2111/211/2/1}
 Group   3 Type H   : 5s2p1d contracted to 3s1p1d pattern {311/2/1}
 Group   4 Type S   : 14s5p5d2f1g contracted to 8s4p3d1f1g pattern {71111111/2111/311/2/1}
 Group   5 Type O   : 12s5p4d2f1g contracted to 6s4p3d1f1g pattern {711111/2111/211/2/1}

Atom   0C    basis set group =>   1
Atom   1C    basis set group =>   1
Atom   2C    basis set group =>   1
Atom   3C    basis set group =>   1
Atom   4C    basis set group =>   1
Atom   5C    basis set group =>   1
Atom   6C    basis set group =>   1
Atom   7C    basis set group =>   1
Atom   8N    basis set group =>   2
Atom   9C    basis set group =>   1
Atom  10C    basis set group =>   1
Atom  11C    basis set group =>   1
Atom  12C    basis set group =>   1
Atom  13H    basis set group =>   3
Atom  14H    basis set group =>   3
Atom  15H    basis set group =>   3
Atom  16H    basis set group =>   3
Atom  17H    basis set group =>   3
Atom  18H    basis set group =>   3
Atom  19H    basis set group =>   3
Atom  20S    basis set group =>   4
Atom  21C    basis set group =>   1
Atom  22N    basis set group =>   2
Atom  23N    basis set group =>   2
Atom  24C    basis set group =>   1
Atom  25C    basis set group =>   1
Atom  26N    basis set group =>   2
Atom  27N    basis set group =>   2
Atom  28C    basis set group =>   1
Atom  29S    basis set group =>   4
Atom  30N    basis set group =>   2
Atom  31C    basis set group =>   1
Atom  32C    basis set group =>   1
Atom  33N    basis set group =>   2
Atom  34O    basis set group =>   5
Atom  35C    basis set group =>   1
Atom  36C    basis set group =>   1
Atom  37N    basis set group =>   2
Atom  38C    basis set group =>   1
Atom  39H    basis set group =>   3
Atom  40H    basis set group =>   3
Atom  41H    basis set group =>   3
-------------------------
ECP PARAMETER INFORMATION
-------------------------



--------------------------------------------------------------------------
[[32433,1],3]: A high-performance Open MPI point-to-point messaging module
was unable to find any relevant network interfaces:

Module: OpenFabrics (openib)
  Host: cx1-105-14-3

Another transport will be used instead, although this may result in
lower performance.
--------------------------------------------------------------------------


           ************************************************************
           *        Program running with 24 parallel MPI-processes    *
           *              working on a common directory               *
           ************************************************************
------------------------------------------------------------------------------
                           ORCA GTO INTEGRAL CALCULATION
                           -- RI-GTO INTEGRALS CHOSEN --
------------------------------------------------------------------------------

                         BASIS SET STATISTICS AND STARTUP INFO

Gaussian basis set:
 # of primitive gaussian shells          ...  714
 # of primitive gaussian functions       ... 1586
 # of contracted shells                  ...  396
 # of contracted basis functions         ... 1064
 Highest angular momentum                ...    3
 Maximum contraction depth               ...    7
Auxiliary gaussian basis set:
 # of primitive gaussian shells          ...  854
 # of primitive gaussian functions       ... 2414
 # of contracted shells                  ...  534
 # of contracted aux-basis functions     ... 1682
 Highest angular momentum                ...    4
 Maximum contraction depth               ...    7
Ratio of auxiliary to basis functions    ...  1.58
Integral package used                  ... LIBINT
 One Electron integrals                  
   ECP integrals                         ... done
 Ordering auxiliary basis shells         ... done
 Integral threshhold             Thresh  ...  2.500e-11
 Primitive cut-off               TCut    ...  2.500e-12
 Pre-screening matrix                    ... done
 Shell pair data                         ... 
 Ordering of the shell pairs             ... done (   0.013 sec) 39544 of 78606 pairs
 Determination of significant pairs      ... done (   0.000 sec)
 Creation of shell pair data             ... done (   0.009 sec)
 Storage of shell pair data              ... done (   0.103 sec)
 Shell pair data done in (   0.126 sec)
 Computing two index integrals           ... done
 Cholesky decomposition of the V-matrix  ... done


Timings:
 Total evaluation time                   ...   5.049 sec (  0.084 min)
 One electron matrix time                ...   1.298 sec (  0.022 min) = 25.7%
 Schwartz matrix evaluation time         ...   2.672 sec (  0.045 min) = 52.9%
 Two index repulsion integral time       ...   0.379 sec (  0.006 min) =  7.5%
 Cholesky decomposition of V             ...   0.524 sec (  0.009 min) = 10.4%
 Three index repulsion integral time     ...   0.000 sec (  0.000 min) =  0.0%

--------------------------------------------------------------------------
[[32451,1],1]: A high-performance Open MPI point-to-point messaging module
was unable to find any relevant network interfaces:

Module: OpenFabrics (openib)
  Host: cx1-105-14-3

Another transport will be used instead, although this may result in
lower performance.
--------------------------------------------------------------------------


           ************************************************************
           *        Program running with 24 parallel MPI-processes    *
           *              working on a common directory               *
           ************************************************************
-------------------------------------------------------------------------------
                                 ORCA SCF
-------------------------------------------------------------------------------

------------
SCF SETTINGS
------------
Hamiltonian:
 Density Functional     Method          .... DFT(GTOs)
 Exchange Functional    Exchange        .... WB97X-D3
 Correlation Functional Correlation     .... WB97X-D3
 Gradients option       PostSCFGGA      .... off
 Hybrid DFT is turned on
   Fraction HF Exchange ScalHFX         ....  0.195728
   Scaling of DF-GGA-X  ScalDFX         ....  0.000000
   Scaling of DF-GGA-C  ScalDFC         ....  1.000000
   Scaling of DF-LDA-C  ScalLDAC        ....  1.000000
   Perturbative correction              ....  0.000000
 Long-range corrected/Screened/Range-Separated Hybrid DFT is turned on
   Amount of maximum screened exact exchange              ....  0.804272
   Range separation parameter mu (erf(mu*r12)/r12)        ....  0.250000
 RI-approximation to the Coulomb term is turned on
   Number of auxiliary basis functions  .... 1682
   RIJ-COSX (HFX calculated with COS-X)).... on


General Settings:
 Integral files         IntName         .... total
 Hartree-Fock type      HFTyp           .... RHF
 Total Charge           Charge          ....    0
 Multiplicity           Mult            ....    1
 Number of Electrons    NEL             ....  232
 Basis Dimension        Dim             .... 1064
 Nuclear Repulsion      ENuc            ....   3040.6255178757 Eh

Convergence Acceleration:
 DIIS                   CNVDIIS         .... on
   Start iteration      DIISMaxIt       ....    12
   Startup error        DIISStart       ....  0.200000
   # of expansion vecs  DIISMaxEq       ....     5
   Bias factor          DIISBfac        ....   1.050
   Max. coefficient     DIISMaxC        ....  10.000
 Newton-Raphson         CNVNR           .... off
 SOSCF                  CNVSOSCF        .... on
   Start iteration      SOSCFMaxIt      ....   150
   Startup grad/error   SOSCFStart      ....  0.003300
 Level Shifting         CNVShift        .... on
   Level shift para.    LevelShift      ....    0.2500
   Turn off err/grad.   ShiftErr        ....    0.0010
 Zerner damping         CNVZerner       .... off
 Static damping         CNVDamp         .... on
   Fraction old density DampFac         ....    0.7000
   Max. Damping (<1)    DampMax         ....    0.9800
   Min. Damping (>=0)   DampMin         ....    0.0000
   Turn off err/grad.   DampErr         ....    0.1000
 Fernandez-Rico         CNVRico         .... off

SCF Procedure:
 Maximum # iterations   MaxIter         ....   125
 SCF integral mode      SCFMode         .... Direct
   Integral package                     .... LIBINT
 Reset frequeny         DirectResetFreq ....    20
 Integral Threshold     Thresh          ....  2.500e-11 Eh
 Primitive CutOff       TCut            ....  2.500e-12 Eh

Convergence Tolerance:
 Convergence Check Mode ConvCheckMode   .... Total+1el-Energy
 Convergence forced     ConvForced      .... 1
 Energy Change          TolE            ....  1.000e-08 Eh
 1-El. energy change                    ....  1.000e-05 Eh
 Orbital Gradient       TolG            ....  1.000e-05
 Orbital Rotation angle TolX            ....  1.000e-05
 DIIS Error             TolErr          ....  5.000e-07


Diagonalization of the overlap matrix:
Smallest eigenvalue                        ... 6.237e-06
Time for diagonalization                   ...    0.391 sec
Threshold for overlap eigenvalues          ... 1.000e-08
Number of eigenvalues below threshold      ... 0
Time for construction of square roots      ...    0.420 sec
Total time needed                          ...    0.819 sec

-------------------
DFT GRID GENERATION
-------------------

General Integration Accuracy     IntAcc      ...  5.010
Radial Grid Type                 RadialGrid  ... Gauss-Chebyshev
Angular Grid (max. acc.)         AngularGrid ... Lebedev-434
Angular grid pruning method      GridPruning ... 3 (G Style)
Weight generation scheme         WeightScheme... Becke
Basis function cutoff            BFCut       ...    1.0000e-11
Integration weight cutoff        WCut        ...    1.0000e-14
Grids for H and He will be reduced by one unit

# of grid points (after initial pruning)     ... 410620 (   0.0 sec)
# of grid points (after weights+screening)   ... 363728 (   0.9 sec)
nearest neighbour list constructed           ...    0.0 sec
Grid point re-assignment to atoms done       ...    0.2 sec
Grid point division into batches done        ...    4.9 sec
Reduced shell lists constructed in    5.7 sec

Total number of grid points                  ...   363728
Total number of batches                      ...     5706
Average number of points per batch           ...       63
Average number of grid points per atom       ...     8660
Average number of shells per batch           ...   128.86 (32.54%)
Average number of basis functions per batch  ...   335.57 (31.54%)
Average number of large shells per batch     ...    88.38 (68.59%)
Average number of large basis fcns per batch ...   228.35 (68.05%)
Maximum spatial batch extension              ...   9.94, 18.29, 13.10 au
Average spatial batch extension              ...   0.05,  0.07,  0.06 au

Time for grid setup =    7.154 sec

------------------------------
INITIAL GUESS: MODEL POTENTIAL
------------------------------
Loading Hartree-Fock densities                     ... done
Calculating cut-offs                               ... done
Setting up the integral package                    ... done
Initializing the effective Hamiltonian             ... done
Starting the Coulomb interaction                   ... done (   0.5 sec)
Reading the grid                                   ... done
Mapping shells                                     ... done
Starting the XC term evaluation                    ... done (   1.8 sec)
  promolecular density results
     # of electrons  =    231.995063215
     EX              =   -220.552038644
     EC              =     -8.066202721
     EX+EC           =   -228.618241365
Transforming the Hamiltonian                       ... done (   0.2 sec)
Diagonalizing the Hamiltonian                      ... done (   0.4 sec)
Back transforming the eigenvectors                 ... done (   0.1 sec)
Now organizing SCF variables                       ... done
                      ------------------
                      INITIAL GUESS DONE (  10.5 sec)
                      ------------------
--------------------
COSX GRID GENERATION
--------------------

General Integration Accuracy     IntAcc      ...  3.340
Radial Grid Type                 RadialGrid  ... Gauss-Chebyshev
Angular Grid (max. acc.)         AngularGrid ... Lebedev-50
Angular grid pruning method      GridPruning ... 3 (G Style)
Weight generation scheme         WeightScheme... Becke
Basis function cutoff            BFCut       ...    1.0000e-11
Integration weight cutoff        WCut        ...    1.0000e-14
Grids for H and He will be reduced by one unit

# of grid points (after initial pruning)     ...  21900 (   0.0 sec)
# of grid points (after weights+screening)   ...  20145 (   0.1 sec)
nearest neighbour list constructed           ...    0.0 sec
Grid point re-assignment to atoms done       ...    0.0 sec
Grid point division into batches done        ...    0.0 sec
Reduced shell lists constructed in    0.1 sec

Total number of grid points                  ...    20145
Total number of batches                      ...      335
Average number of points per batch           ...       60
Average number of grid points per atom       ...      480
Average number of shells per batch           ...   140.47 (35.47%)
Average number of basis functions per batch  ...   372.07 (34.97%)
Average number of large shells per batch     ...    97.73 (69.58%)
Average number of large basis fcns per batch ...   255.33 (68.63%)
Maximum spatial batch extension              ...   3.71, 14.23, 24.97 au
Average spatial batch extension              ...   0.10,  0.23,  0.28 au

Overlap Fitting                  UseSFitting ... on
Constructing numerical overlap ... done (      0.1 sec)
Inverting numerical overlap    ... done (      0.2 sec)
Obtaining analytic overlap     ... done (      0.0 sec)
Final contraction and storage  ... done (      0.5 sec)


General Integration Accuracy     IntAcc      ...  3.670
Radial Grid Type                 RadialGrid  ... Gauss-Chebyshev
Angular Grid (max. acc.)         AngularGrid ... Lebedev-50
Angular grid pruning method      GridPruning ... 3 (G Style)
Weight generation scheme         WeightScheme... Becke
Basis function cutoff            BFCut       ...    1.0000e-11
Integration weight cutoff        WCut        ...    1.0000e-14
Grids for H and He will be reduced by one unit

# of grid points (after initial pruning)     ...  27304 (   0.0 sec)
# of grid points (after weights+screening)   ...  25057 (   0.1 sec)
nearest neighbour list constructed           ...    0.0 sec
Grid point re-assignment to atoms done       ...    0.0 sec
Grid point division into batches done        ...    0.0 sec
Reduced shell lists constructed in    0.1 sec

Total number of grid points                  ...    25057
Total number of batches                      ...      411
Average number of points per batch           ...       60
Average number of grid points per atom       ...      597
Average number of shells per batch           ...   140.16 (35.39%)
Average number of basis functions per batch  ...   368.26 (34.61%)
Average number of large shells per batch     ...    97.42 (69.51%)
Average number of large basis fcns per batch ...   255.42 (69.36%)
Maximum spatial batch extension              ...   3.99, 15.81, 27.53 au
Average spatial batch extension              ...   0.10,  0.18,  0.25 au

Overlap Fitting                  UseSFitting ... on
Constructing numerical overlap ... done (      0.1 sec)
Inverting numerical overlap    ... done (      0.1 sec)
Obtaining analytic overlap     ... done (      0.0 sec)
Final contraction and storage  ... done (      0.5 sec)


General Integration Accuracy     IntAcc      ...  4.010
Radial Grid Type                 RadialGrid  ... Gauss-Chebyshev
Angular Grid (max. acc.)         AngularGrid ... Lebedev-110
Angular grid pruning method      GridPruning ... 3 (G Style)
Weight generation scheme         WeightScheme... Becke
Basis function cutoff            BFCut       ...    1.0000e-11
Integration weight cutoff        WCut        ...    1.0000e-14
Grids for H and He will be reduced by one unit

# of grid points (after initial pruning)     ...  53938 (   0.0 sec)
# of grid points (after weights+screening)   ...  49010 (   0.1 sec)
nearest neighbour list constructed           ...    0.0 sec
Grid point re-assignment to atoms done       ...    0.0 sec
Grid point division into batches done        ...    0.1 sec
Reduced shell lists constructed in    0.2 sec

Total number of grid points                  ...    49010
Total number of batches                      ...      789
Average number of points per batch           ...       62
Average number of grid points per atom       ...     1167
Average number of shells per batch           ...   140.15 (35.39%)
Average number of basis functions per batch  ...   370.15 (34.79%)
Average number of large shells per batch     ...    97.41 (69.51%)
Average number of large basis fcns per batch ...   254.82 (68.84%)
Maximum spatial batch extension              ...   3.70, 10.70, 18.10 au
Average spatial batch extension              ...   0.09,  0.15,  0.20 au

Overlap Fitting                  UseSFitting ... on
Constructing numerical overlap ... done (      0.2 sec)
Inverting numerical overlap    ... done (      0.1 sec)
Obtaining analytic overlap     ... done (      0.0 sec)
Final contraction and storage  ... done (      0.5 sec)

Time for X-Grid setup             =    3.327 sec
--------------
SCF ITERATIONS
--------------
ITER       Energy         Delta-E        Max-DP      RMS-DP      [F,P]     Damp
               ***  Starting incremental Fock matrix formation  ***
  0  -2115.2443407088   0.000000000000 0.06177472  0.00057939  0.1822994 0.7000
  1  -2115.4824618829  -0.238121174127 0.06601204  0.00048333  0.0984183 0.7000
                               ***Turning on DIIS***
  2  -2115.5971282300  -0.114666347170 0.13106347  0.00103561  0.0537392 0.0000
  3  -2115.7862900751  -0.189161845039 0.03875376  0.00032330  0.0410492 0.0000
  4  -2115.8184178057  -0.032127730562 0.01146149  0.00011115  0.0125582 0.0000
  5  -2115.8200469084  -0.001629102753 0.00630999  0.00004978  0.0066783 0.0000
                      *** Initiating the SOSCF procedure ***
                           *** Shutting down DIIS ***
                      *** Re-Reading the Fockian *** 
                      *** Removing any level shift *** 
ITER      Energy       Delta-E        Grad      Rot      Max-DP    RMS-DP
  6  -2115.82048063  -0.0004337265  0.001977  0.001977  0.002315  0.000030
               *** Restarting incremental Fock matrix formation ***
  7  -2115.82064629  -0.0001656574  0.001296  0.003511  0.009930  0.000084
  8  -2115.82071685  -0.0000705549  0.000627  0.003914  0.008434  0.000072
  9  -2115.82074296  -0.0000261089  0.000323  0.001060  0.006817  0.000059
 10  -2115.82075143  -0.0000084716  0.000105  0.000247  0.001427  0.000013
 11  -2115.82075182  -0.0000003885  0.000059  0.000160  0.000863  0.000007
 12  -2115.82075225  -0.0000004374  0.000010  0.000044  0.000170  0.000001
 13  -2115.82075226  -0.0000000065  0.000009  0.000019  0.000175  0.000001
 14  -2115.82075231  -0.0000000546  0.000003  0.000007  0.000273  0.000002
 15  -2115.82075237  -0.0000000519  0.000003  0.000006  0.000116  0.000001
                  ***Gradient check signals convergence***
              ***Rediagonalizing the Fockian in SOSCF/NRSCF***

               *****************************************************
               *                     SUCCESS                       *
               *           SCF CONVERGED AFTER  16 CYCLES          *
               *****************************************************

Old exchange energy                            =    -68.600311803 Eh
New exchange energy                            =    -68.601028765 Eh
Exchange energy change after final integration =     -0.000716962 Eh
Total energy after final integration           =  -2115.821469313 Eh
Final COS-X integration done in                =    39.662 sec

----------------
TOTAL SCF ENERGY
----------------

Total Energy       :        -2115.82146931 Eh          -57574.42921 eV

Components:
Nuclear Repulsion  :         3040.62551788 Eh           82739.62674 eV
Electronic Energy  :        -5156.44698719 Eh         -140314.05595 eV
One Electron Energy:        -8937.00503227 Eh         -243188.27038 eV
Two Electron Energy:         3780.55804508 Eh          102874.21443 eV

Virial components:
Potential Energy   :        -4223.19029276 Eh         -114918.85023 eV
Kinetic Energy     :         2107.36882345 Eh           57344.42102 eV
Virial Ratio       :            2.00401100


DFT components:
N(Alpha)           :      115.999976810575 electrons
N(Beta)            :      115.999976810575 electrons
N(Total)           :      231.999953621151 electrons
E(XC)              :     -163.841588570955 Eh       

---------------
SCF CONVERGENCE
---------------

  Last Energy change         ...    1.5308e-08  Tolerance :   1.0000e-08
  Last MAX-Density change    ...    5.7470e-13  Tolerance :   1.0000e-07
  Last RMS-Density change    ...    1.2138e-15  Tolerance :   5.0000e-09
  Last Orbital Gradient      ...    5.9709e-07  Tolerance :   1.0000e-05
  Last Orbital Rotation      ...    1.5650e-06  Tolerance :   1.0000e-05

             **** THE GBW FILE WAS UPDATED (total.gbw) ****
             **** DENSITY FILE WAS UPDATED (total.scfp.tmp) ****
             **** ENERGY FILE WAS UPDATED (total.en.tmp) ****
----------------
ORBITAL ENERGIES
----------------

  NO   OCC          E(Eh)            E(eV) 
   0   2.0000     -89.022155     -2422.4160 
   1   2.0000     -89.014734     -2422.2141 
   2   2.0000     -19.400136      -527.9045 
   3   2.0000     -14.528551      -395.3420 
   4   2.0000     -14.519822      -395.1044 
   5   2.0000     -14.484021      -394.1302 
   6   2.0000     -14.481523      -394.0623 
   7   2.0000     -14.480175      -394.0256 
   8   2.0000     -14.474685      -393.8762 
   9   2.0000     -14.470762      -393.7695 
  10   2.0000     -14.470024      -393.7494 
  11   2.0000     -10.392766      -282.8015 
  12   2.0000     -10.390526      -282.7406 
  13   2.0000     -10.386394      -282.6282 
  14   2.0000     -10.381852      -282.5046 
  15   2.0000     -10.376625      -282.3623 
  16   2.0000     -10.366412      -282.0844 
  17   2.0000     -10.365276      -282.0535 
  18   2.0000     -10.362812      -281.9864 
  19   2.0000     -10.358183      -281.8605 
  20   2.0000     -10.339115      -281.3416 
  21   2.0000     -10.330049      -281.0949 
  22   2.0000     -10.325655      -280.9753 
  23   2.0000     -10.309850      -280.5453 
  24   2.0000     -10.303916      -280.3838 
  25   2.0000     -10.300381      -280.2876 
  26   2.0000     -10.299771      -280.2710 
  27   2.0000     -10.293126      -280.0902 
  28   2.0000     -10.288188      -279.9558 
  29   2.0000     -10.287248      -279.9302 
  30   2.0000     -10.281678      -279.7787 
  31   2.0000     -10.274751      -279.5902 
  32   2.0000      -8.118327      -220.9109 
  33   2.0000      -8.110916      -220.7093 
  34   2.0000      -6.071394      -165.2110 
  35   2.0000      -6.067560      -165.1067 
  36   2.0000      -6.065386      -165.0476 
  37   2.0000      -6.064008      -165.0100 
  38   2.0000      -6.060064      -164.9027 
  39   2.0000      -6.058016      -164.8470 
  40   2.0000      -1.345130       -36.6028 
  41   2.0000      -1.168192       -31.7881 
  42   2.0000      -1.158214       -31.5166 
  43   2.0000      -1.112054       -30.2605 
  44   2.0000      -1.102873       -30.0107 
  45   2.0000      -1.053165       -28.6581 
  46   2.0000      -1.017212       -27.6797 
  47   2.0000      -1.000992       -27.2384 
  48   2.0000      -0.989049       -26.9134 
  49   2.0000      -0.972573       -26.4651 
  50   2.0000      -0.967009       -26.3137 
  51   2.0000      -0.945183       -25.7197 
  52   2.0000      -0.925285       -25.1783 
  53   2.0000      -0.914138       -24.8750 
  54   2.0000      -0.906401       -24.6644 
  55   2.0000      -0.879986       -23.9456 
  56   2.0000      -0.851342       -23.1662 
  57   2.0000      -0.846894       -23.0452 
  58   2.0000      -0.845481       -23.0067 
  59   2.0000      -0.804517       -21.8920 
  60   2.0000      -0.788075       -21.4446 
  61   2.0000      -0.781372       -21.2622 
  62   2.0000      -0.765330       -20.8257 
  63   2.0000      -0.736101       -20.0303 
  64   2.0000      -0.728924       -19.8350 
  65   2.0000      -0.719065       -19.5668 
  66   2.0000      -0.709338       -19.3021 
  67   2.0000      -0.688087       -18.7238 
  68   2.0000      -0.677709       -18.4414 
  69   2.0000      -0.672295       -18.2941 
  70   2.0000      -0.658931       -17.9304 
  71   2.0000      -0.644077       -17.5262 
  72   2.0000      -0.640015       -17.4157 
  73   2.0000      -0.629557       -17.1311 
  74   2.0000      -0.621502       -16.9119 
  75   2.0000      -0.615920       -16.7600 
  76   2.0000      -0.607107       -16.5202 
  77   2.0000      -0.584458       -15.9039 
  78   2.0000      -0.580138       -15.7863 
  79   2.0000      -0.574488       -15.6326 
  80   2.0000      -0.569594       -15.4994 
  81   2.0000      -0.563710       -15.3393 
  82   2.0000      -0.559272       -15.2186 
  83   2.0000      -0.552206       -15.0263 
  84   2.0000      -0.550431       -14.9780 
  85   2.0000      -0.543021       -14.7763 
  86   2.0000      -0.536713       -14.6047 
  87   2.0000      -0.534257       -14.5379 
  88   2.0000      -0.530779       -14.4432 
  89   2.0000      -0.526309       -14.3216 
  90   2.0000      -0.523796       -14.2532 
  91   2.0000      -0.514369       -13.9967 
  92   2.0000      -0.483000       -13.1431 
  93   2.0000      -0.478562       -13.0223 
  94   2.0000      -0.472675       -12.8621 
  95   2.0000      -0.469172       -12.7668 
  96   2.0000      -0.460166       -12.5218 
  97   2.0000      -0.450416       -12.2564 
  98   2.0000      -0.448491       -12.2041 
  99   2.0000      -0.440498       -11.9865 
 100   2.0000      -0.438919       -11.9436 
 101   2.0000      -0.427416       -11.6306 
 102   2.0000      -0.424802       -11.5595 
 103   2.0000      -0.424346       -11.5470 
 104   2.0000      -0.411388       -11.1944 
 105   2.0000      -0.409674       -11.1478 
 106   2.0000      -0.401719       -10.9313 
 107   2.0000      -0.397982       -10.8297 
 108   2.0000      -0.390011       -10.6127 
 109   2.0000      -0.383433       -10.4337 
 110   2.0000      -0.378660       -10.3039 
 111   2.0000      -0.372798       -10.1443 
 112   2.0000      -0.350021        -9.5246 
 113   2.0000      -0.330799        -9.0015 
 114   2.0000      -0.304854        -8.2955 
 115   2.0000      -0.294940        -8.0257 
 116   0.0000      -0.067077        -1.8253 
 117   0.0000      -0.032524        -0.8850 
 118   0.0000       0.003487         0.0949 
 119   0.0000       0.032138         0.8745 
 120   0.0000       0.040868         1.1121 
 121   0.0000       0.046274         1.2592 
 122   0.0000       0.053476         1.4552 
 123   0.0000       0.066962         1.8221 
 124   0.0000       0.078420         2.1339 
 125   0.0000       0.090682         2.4676 
 126   0.0000       0.094039         2.5589 
 127   0.0000       0.104709         2.8493 
 128   0.0000       0.106516         2.8985 
 129   0.0000       0.114042         3.1032 
 130   0.0000       0.119090         3.2406 
 131   0.0000       0.127435         3.4677 
 132   0.0000       0.131460         3.5772 
 133   0.0000       0.136723         3.7204 
 134   0.0000       0.141334         3.8459 
 135   0.0000       0.147985         4.0269 
 136   0.0000       0.152390         4.1468 
 137   0.0000       0.162321         4.4170 
 138   0.0000       0.164159         4.4670 
 139   0.0000       0.170360         4.6357 
 140   0.0000       0.175839         4.7848 
 141   0.0000       0.181263         4.9324 
 142   0.0000       0.185990         5.0611 
 143   0.0000       0.191275         5.2048 
 144   0.0000       0.194891         5.3033 
 145   0.0000       0.206063         5.6073 
 146   0.0000       0.207061         5.6344 
 147   0.0000       0.209264         5.6944 
 148   0.0000       0.215089         5.8529 
 149   0.0000       0.220111         5.9895 
 150   0.0000       0.223076         6.0702 
 151   0.0000       0.228058         6.2058 
 152   0.0000       0.235379         6.4050 
 153   0.0000       0.240906         6.5554 
 154   0.0000       0.246881         6.7180 
 155   0.0000       0.249622         6.7926 
 156   0.0000       0.254009         6.9119 
 157   0.0000       0.256065         6.9679 
 158   0.0000       0.260477         7.0879 
 159   0.0000       0.264745         7.2041 
 160   0.0000       0.265279         7.2186 
 161   0.0000       0.273297         7.4368 
 162   0.0000       0.275779         7.5043 
 163   0.0000       0.276323         7.5191 
 164   0.0000       0.283778         7.7220 
 165   0.0000       0.285139         7.7590 
 166   0.0000       0.288898         7.8613 
 167   0.0000       0.292931         7.9711 
 168   0.0000       0.294081         8.0023 
 169   0.0000       0.297288         8.0896 
 170   0.0000       0.299547         8.1511 
 171   0.0000       0.304622         8.2892 
 172   0.0000       0.309182         8.4133 
 173   0.0000       0.315954         8.5976 
 174   0.0000       0.317067         8.6278 
 175   0.0000       0.319328         8.6893 
 176   0.0000       0.323289         8.7972 
 177   0.0000       0.327691         8.9169 
 178   0.0000       0.328824         8.9478 
 179   0.0000       0.333103         9.0642 
 180   0.0000       0.338154         9.2016 
 181   0.0000       0.342429         9.3180 
 182   0.0000       0.344583         9.3766 
 183   0.0000       0.348296         9.4776 
 184   0.0000       0.350286         9.5318 
 185   0.0000       0.356051         9.6886 
 186   0.0000       0.362556         9.8657 
 187   0.0000       0.363851         9.9009 
 188   0.0000       0.365977         9.9587 
 189   0.0000       0.370208        10.0739 
 190   0.0000       0.371330        10.1044 
 191   0.0000       0.375941        10.2299 
 192   0.0000       0.381787        10.3889 
 193   0.0000       0.385315        10.4850 
 194   0.0000       0.387875        10.5546 
 195   0.0000       0.392103        10.6697 
 196   0.0000       0.394434        10.7331 
 197   0.0000       0.396001        10.7757 
 198   0.0000       0.397570        10.8184 
 199   0.0000       0.401487        10.9250 
 200   0.0000       0.406760        11.0685 
 201   0.0000       0.411698        11.2029 
 202   0.0000       0.411901        11.2084 
 203   0.0000       0.415788        11.3142 
 204   0.0000       0.422596        11.4994 
 205   0.0000       0.429730        11.6935 
 206   0.0000       0.431683        11.7467 
 207   0.0000       0.434981        11.8364 
 208   0.0000       0.436538        11.8788 
 209   0.0000       0.442128        12.0309 
 210   0.0000       0.443235        12.0610 
 211   0.0000       0.444313        12.0904 
 212   0.0000       0.446219        12.1422 
 213   0.0000       0.449059        12.2195 
 214   0.0000       0.450155        12.2493 
 215   0.0000       0.451962        12.2985 
 216   0.0000       0.454011        12.3543 
 217   0.0000       0.459599        12.5063 
 218   0.0000       0.465516        12.6673 
 219   0.0000       0.468577        12.7506 
 220   0.0000       0.473144        12.8749 
 221   0.0000       0.475952        12.9513 
 222   0.0000       0.479032        13.0351 
 223   0.0000       0.481719        13.1082 
 224   0.0000       0.485774        13.2186 
 225   0.0000       0.488009        13.2794 
 226   0.0000       0.490563        13.3489 
 227   0.0000       0.495732        13.4896 
 228   0.0000       0.497022        13.5246 
 229   0.0000       0.498074        13.5533 
 230   0.0000       0.502159        13.6644 
 231   0.0000       0.505002        13.7418 
 232   0.0000       0.511650        13.9227 
 233   0.0000       0.515469        14.0266 
 234   0.0000       0.517531        14.0827 
 235   0.0000       0.525681        14.3045 
 236   0.0000       0.528618        14.3844 
 237   0.0000       0.532656        14.4943 
 238   0.0000       0.534906        14.5555 
 239   0.0000       0.539067        14.6687 
 240   0.0000       0.539685        14.6856 
 241   0.0000       0.545575        14.8459 
 242   0.0000       0.548000        14.9118 
 243   0.0000       0.548890        14.9360 
 244   0.0000       0.550024        14.9669 
 245   0.0000       0.556314        15.1381 
 246   0.0000       0.557283        15.1644 
 247   0.0000       0.564572        15.3628 
 248   0.0000       0.566900        15.4261 
 249   0.0000       0.569729        15.5031 
 250   0.0000       0.573090        15.5946 
 251   0.0000       0.578937        15.7537 
 252   0.0000       0.581666        15.8279 
 253   0.0000       0.587084        15.9754 
 254   0.0000       0.588041        16.0014 
 255   0.0000       0.593580        16.1521 
 256   0.0000       0.599814        16.3218 
 257   0.0000       0.604247        16.4424 
 258   0.0000       0.605837        16.4857 
 259   0.0000       0.606414        16.5014 
 260   0.0000       0.619988        16.8707 
 261   0.0000       0.630779        17.1644 
 262   0.0000       0.633351        17.2344 
 263   0.0000       0.635748        17.2996 
 264   0.0000       0.640868        17.4389 
 265   0.0000       0.645213        17.5571 
 266   0.0000       0.645325        17.5602 
 267   0.0000       0.650435        17.6992 
 268   0.0000       0.654125        17.7997 
 269   0.0000       0.659523        17.9465 
 270   0.0000       0.663310        18.0496 
 271   0.0000       0.666122        18.1261 
 272   0.0000       0.674127        18.3439 
 273   0.0000       0.676288        18.4027 
 274   0.0000       0.680997        18.5309 
 275   0.0000       0.681519        18.5451 
 276   0.0000       0.686498        18.6806 
 277   0.0000       0.691127        18.8065 
 278   0.0000       0.694303        18.8929 
 279   0.0000       0.698539        19.0082 
 280   0.0000       0.699298        19.0289 
 281   0.0000       0.705246        19.1907 
 282   0.0000       0.709169        19.2975 
 283   0.0000       0.715049        19.4575 
 284   0.0000       0.717687        19.5293 
 285   0.0000       0.720810        19.6142 
 286   0.0000       0.723931        19.6992 
 287   0.0000       0.725450        19.7405 
 288   0.0000       0.738822        20.1044 
 289   0.0000       0.740709        20.1557 
 290   0.0000       0.744482        20.2584 
 291   0.0000       0.746153        20.3039 
 292   0.0000       0.748742        20.3743 
 293   0.0000       0.750375        20.4187 
 294   0.0000       0.761504        20.7216 
 295   0.0000       0.761854        20.7311 
 296   0.0000       0.770857        20.9761 
 297   0.0000       0.773347        21.0439 
 298   0.0000       0.778678        21.1889 
 299   0.0000       0.781381        21.2625 
 300   0.0000       0.783944        21.3322 
 301   0.0000       0.788426        21.4542 
 302   0.0000       0.790937        21.5225 
 303   0.0000       0.793599        21.5949 
 304   0.0000       0.798097        21.7173 
 305   0.0000       0.801368        21.8063 
 306   0.0000       0.805492        21.9185 
 307   0.0000       0.813387        22.1334 
 308   0.0000       0.818169        22.2635 
 309   0.0000       0.822499        22.3813 
 310   0.0000       0.823603        22.4114 
 311   0.0000       0.824108        22.4251 
 312   0.0000       0.830930        22.6108 
 313   0.0000       0.835697        22.7405 
 314   0.0000       0.839837        22.8531 
 315   0.0000       0.841123        22.8881 
 316   0.0000       0.847086        23.0504 
 317   0.0000       0.849353        23.1121 
 318   0.0000       0.857230        23.3264 
 319   0.0000       0.861207        23.4346 
 320   0.0000       0.863900        23.5079 
 321   0.0000       0.871108        23.7041 
 322   0.0000       0.873694        23.7744 
 323   0.0000       0.884741        24.0750 
 324   0.0000       0.886810        24.1313 
 325   0.0000       0.893898        24.3242 
 326   0.0000       0.897127        24.4121 
 327   0.0000       0.901286        24.5252 
 328   0.0000       0.907430        24.6924 
 329   0.0000       0.916182        24.9306 
 330   0.0000       0.917518        24.9669 
 331   0.0000       0.924211        25.1491 
 332   0.0000       0.927716        25.2444 
 333   0.0000       0.935172        25.4473 
 334   0.0000       0.936990        25.4968 
 335   0.0000       0.937910        25.5218 
 336   0.0000       0.946533        25.7565 
 337   0.0000       0.951850        25.9012 
 338   0.0000       0.954684        25.9783 
 339   0.0000       0.959391        26.1064 
 340   0.0000       0.966922        26.3113 
 341   0.0000       0.974163        26.5083 
 342   0.0000       0.980332        26.6762 
 343   0.0000       0.989991        26.9390 
 344   0.0000       0.995965        27.1016 
 345   0.0000       1.001598        27.2549 
 346   0.0000       1.004962        27.3464 
 347   0.0000       1.009617        27.4731 
 348   0.0000       1.019868        27.7520 
 349   0.0000       1.028002        27.9734 
 350   0.0000       1.033982        28.1361 
 351   0.0000       1.039069        28.2745 
 352   0.0000       1.039718        28.2922 
 353   0.0000       1.050982        28.5987 
 354   0.0000       1.056386        28.7457 
 355   0.0000       1.063091        28.9282 
 356   0.0000       1.069647        29.1066 
 357   0.0000       1.077789        29.3281 
 358   0.0000       1.086288        29.5594 
 359   0.0000       1.096825        29.8461 
 360   0.0000       1.098306        29.8864 
 361   0.0000       1.100915        29.9574 
 362   0.0000       1.110338        30.2138 
 363   0.0000       1.113016        30.2867 
 364   0.0000       1.120848        30.4998 
 365   0.0000       1.132332        30.8123 
 366   0.0000       1.137755        30.9599 
 367   0.0000       1.152025        31.3482 
 368   0.0000       1.153976        31.4013 
 369   0.0000       1.159595        31.5542 
 370   0.0000       1.165700        31.7203 
 371   0.0000       1.174770        31.9671 
 372   0.0000       1.178769        32.0759 
 373   0.0000       1.186488        32.2860 
 374   0.0000       1.196858        32.5682 
 375   0.0000       1.203455        32.7477 
 376   0.0000       1.221363        33.2350 
 377   0.0000       1.224738        33.3268 
 378   0.0000       1.229896        33.4672 
 379   0.0000       1.234826        33.6013 
 380   0.0000       1.244289        33.8588 
 381   0.0000       1.250309        34.0226 
 382   0.0000       1.259792        34.2807 
 383   0.0000       1.263181        34.3729 
 384   0.0000       1.264782        34.4165 
 385   0.0000       1.267506        34.4906 
 386   0.0000       1.271092        34.5882 
 387   0.0000       1.277490        34.7623 
 388   0.0000       1.288272        35.0557 
 389   0.0000       1.297171        35.2978 
 390   0.0000       1.305457        35.5233 
 391   0.0000       1.312850        35.7245 
 392   0.0000       1.315661        35.8010 
 393   0.0000       1.319998        35.9190 
 394   0.0000       1.327386        36.1200 
 395   0.0000       1.335632        36.3444 
 396   0.0000       1.338795        36.4305 
 397   0.0000       1.346726        36.6463 
 398   0.0000       1.352697        36.8087 
 399   0.0000       1.357278        36.9334 
 400   0.0000       1.360175        37.0122 
 401   0.0000       1.365162        37.1480 
 402   0.0000       1.370474        37.2925 
 403   0.0000       1.377032        37.4709 
 404   0.0000       1.382095        37.6087 
 405   0.0000       1.390628        37.8409 
 406   0.0000       1.396928        38.0123 
 407   0.0000       1.399381        38.0791 
 408   0.0000       1.403560        38.1928 
 409   0.0000       1.409067        38.3427 
 410   0.0000       1.417216        38.5644 
 411   0.0000       1.422891        38.7188 
 412   0.0000       1.435192        39.0536 
 413   0.0000       1.445570        39.3360 
 414   0.0000       1.447965        39.4011 
 415   0.0000       1.449427        39.4409 
 416   0.0000       1.452878        39.5348 
 417   0.0000       1.458727        39.6940 
 418   0.0000       1.465186        39.8697 
 419   0.0000       1.474719        40.1291 
 420   0.0000       1.478619        40.2353 
 421   0.0000       1.483933        40.3799 
 422   0.0000       1.486789        40.4576 
 423   0.0000       1.495662        40.6990 
 424   0.0000       1.500412        40.8283 
 425   0.0000       1.502575        40.8871 
 426   0.0000       1.509777        41.0831 
 427   0.0000       1.516266        41.2597 
 428   0.0000       1.522471        41.4286 
 429   0.0000       1.529451        41.6185 
 430   0.0000       1.532980        41.7145 
 431   0.0000       1.543927        42.0124 
 432   0.0000       1.546317        42.0774 
 433   0.0000       1.549784        42.1718 
 434   0.0000       1.559403        42.4335 
 435   0.0000       1.560504        42.4635 
 436   0.0000       1.566251        42.6199 
 437   0.0000       1.576706        42.9043 
 438   0.0000       1.578461        42.9521 
 439   0.0000       1.581648        43.0388 
 440   0.0000       1.588913        43.2365 
 441   0.0000       1.596144        43.4333 
 442   0.0000       1.600139        43.5420 
 443   0.0000       1.604133        43.6507 
 444   0.0000       1.604844        43.6700 
 445   0.0000       1.606826        43.7240 
 446   0.0000       1.607919        43.7537 
 447   0.0000       1.613466        43.9046 
 448   0.0000       1.616626        43.9906 
 449   0.0000       1.620340        44.0917 
 450   0.0000       1.627187        44.2780 
 451   0.0000       1.630944        44.3802 
 452   0.0000       1.639057        44.6010 
 453   0.0000       1.644848        44.7586 
 454   0.0000       1.647894        44.8415 
 455   0.0000       1.652681        44.9717 
 456   0.0000       1.657959        45.1154 
 457   0.0000       1.663095        45.2551 
 458   0.0000       1.668527        45.4029 
 459   0.0000       1.671724        45.4899 
 460   0.0000       1.677665        45.6516 
 461   0.0000       1.680337        45.7243 
 462   0.0000       1.688149        45.9369 
 463   0.0000       1.691702        46.0336 
 464   0.0000       1.695489        46.1366 
 465   0.0000       1.698753        46.2254 
 466   0.0000       1.700948        46.2851 
 467   0.0000       1.704557        46.3834 
 468   0.0000       1.714782        46.6616 
 469   0.0000       1.715777        46.6887 
 470   0.0000       1.718294        46.7572 
 471   0.0000       1.722537        46.8726 
 472   0.0000       1.728202        47.0268 
 473   0.0000       1.728946        47.0470 
 474   0.0000       1.739093        47.3231 
 475   0.0000       1.747141        47.5421 
 476   0.0000       1.749714        47.6121 
 477   0.0000       1.750393        47.6306 
 478   0.0000       1.766235        48.0617 
 479   0.0000       1.768718        48.1293 
 480   0.0000       1.774795        48.2946 
 481   0.0000       1.779389        48.4196 
 482   0.0000       1.788118        48.6572 
 483   0.0000       1.790518        48.7225 
 484   0.0000       1.794600        48.8336 
 485   0.0000       1.797651        48.9166 
 486   0.0000       1.802559        49.0501 
 487   0.0000       1.809747        49.2457 
 488   0.0000       1.812437        49.3189 
 489   0.0000       1.814340        49.3707 
 490   0.0000       1.820631        49.5419 
 491   0.0000       1.832568        49.8667 
 492   0.0000       1.836110        49.9631 
 493   0.0000       1.837240        49.9938 
 494   0.0000       1.843676        50.1690 
 495   0.0000       1.847386        50.2699 
 496   0.0000       1.856738        50.5244 
 497   0.0000       1.861472        50.6532 
 498   0.0000       1.870341        50.8946 
 499   0.0000       1.878138        51.1067 
 500   0.0000       1.881712        51.2040 
 501   0.0000       1.885815        51.3156 
 502   0.0000       1.889977        51.4289 
 503   0.0000       1.901062        51.7305 
 504   0.0000       1.903218        51.7892 
 505   0.0000       1.912782        52.0494 
 506   0.0000       1.914532        52.0971 
 507   0.0000       1.916466        52.1497 
 508   0.0000       1.936025        52.6819 
 509   0.0000       1.940924        52.8152 
 510   0.0000       1.954879        53.1950 
 511   0.0000       1.955360        53.2080 
 512   0.0000       1.962761        53.4094 
 513   0.0000       1.968381        53.5624 
 514   0.0000       1.973779        53.7093 
 515   0.0000       1.979548        53.8663 
 516   0.0000       1.985189        54.0197 
 517   0.0000       1.997692        54.3600 
 518   0.0000       2.004161        54.5360 
 519   0.0000       2.008869        54.6641 
 520   0.0000       2.011525        54.7364 
 521   0.0000       2.013027        54.7772 
 522   0.0000       2.017924        54.9105 
 523   0.0000       2.021157        54.9985 
 524   0.0000       2.028249        55.1915 
 525   0.0000       2.034931        55.3733 
 526   0.0000       2.043745        55.6131 
 527   0.0000       2.047341        55.7110 
 528   0.0000       2.053302        55.8732 
 529   0.0000       2.067130        56.2495 
 530   0.0000       2.068235        56.2795 
 531   0.0000       2.072211        56.3877 
 532   0.0000       2.093104        56.9563 
 533   0.0000       2.095154        57.0120 
 534   0.0000       2.102931        57.2237 
 535   0.0000       2.111444        57.4553 
 536   0.0000       2.122913        57.7674 
 537   0.0000       2.130473        57.9731 
 538   0.0000       2.137954        58.1767 
 539   0.0000       2.145056        58.3699 
 540   0.0000       2.147672        58.4411 
 541   0.0000       2.149354        58.4869 
 542   0.0000       2.162539        58.8457 
 543   0.0000       2.171340        59.0852 
 544   0.0000       2.176514        59.2260 
 545   0.0000       2.177730        59.2590 
 546   0.0000       2.179516        59.3077 
 547   0.0000       2.184113        59.4327 
 548   0.0000       2.187163        59.5157 
 549   0.0000       2.191264        59.6273 
 550   0.0000       2.198584        59.8265 
 551   0.0000       2.199340        59.8471 
 552   0.0000       2.206251        60.0352 
 553   0.0000       2.212783        60.2129 
 554   0.0000       2.228916        60.6519 
 555   0.0000       2.238424        60.9106 
 556   0.0000       2.247348        61.1534 
 557   0.0000       2.252308        61.2884 
 558   0.0000       2.268102        61.7182 
 559   0.0000       2.277208        61.9660 
 560   0.0000       2.286250        62.2120 
 561   0.0000       2.288941        62.2852 
 562   0.0000       2.290600        62.3304 
 563   0.0000       2.296595        62.4935 
 564   0.0000       2.303123        62.6712 
 565   0.0000       2.307440        62.7886 
 566   0.0000       2.319565        63.1186 
 567   0.0000       2.321496        63.1711 
 568   0.0000       2.328067        63.3499 
 569   0.0000       2.331404        63.4407 
 570   0.0000       2.339230        63.6537 
 571   0.0000       2.339464        63.6601 
 572   0.0000       2.348528        63.9067 
 573   0.0000       2.355754        64.1033 
 574   0.0000       2.357294        64.1452 
 575   0.0000       2.373156        64.5769 
 576   0.0000       2.391514        65.0764 
 577   0.0000       2.397683        65.2443 
 578   0.0000       2.402496        65.3752 
 579   0.0000       2.414955        65.7143 
 580   0.0000       2.422313        65.9145 
 581   0.0000       2.429935        66.1219 
 582   0.0000       2.430971        66.1501 
 583   0.0000       2.436744        66.3072 
 584   0.0000       2.452163        66.7267 
 585   0.0000       2.453677        66.7679 
 586   0.0000       2.457971        66.8848 
 587   0.0000       2.466264        67.1105 
 588   0.0000       2.478962        67.4560 
 589   0.0000       2.487417        67.6861 
 590   0.0000       2.498095        67.9766 
 591   0.0000       2.504783        68.1586 
 592   0.0000       2.517815        68.5132 
 593   0.0000       2.527315        68.7717 
 594   0.0000       2.530413        68.8561 
 595   0.0000       2.541905        69.1687 
 596   0.0000       2.560641        69.6786 
 597   0.0000       2.565172        69.8019 
 598   0.0000       2.576003        70.0966 
 599   0.0000       2.582142        70.2637 
 600   0.0000       2.593278        70.5667 
 601   0.0000       2.599609        70.7390 
 602   0.0000       2.602313        70.8125 
 603   0.0000       2.612938        71.1016 
 604   0.0000       2.614618        71.1474 
 605   0.0000       2.623731        71.3954 
 606   0.0000       2.636884        71.7533 
 607   0.0000       2.646908        72.0260 
 608   0.0000       2.655750        72.2666 
 609   0.0000       2.663217        72.4698 
 610   0.0000       2.666890        72.5698 
 611   0.0000       2.668580        72.6158 
 612   0.0000       2.679923        72.9244 
 613   0.0000       2.685981        73.0893 
 614   0.0000       2.689837        73.1942 
 615   0.0000       2.695860        73.3581 
 616   0.0000       2.704539        73.5943 
 617   0.0000       2.708997        73.7156 
 618   0.0000       2.715113        73.8820 
 619   0.0000       2.727547        74.2203 
 620   0.0000       2.730371        74.2972 
 621   0.0000       2.735633        74.4404 
 622   0.0000       2.738062        74.5065 
 623   0.0000       2.749838        74.8269 
 624   0.0000       2.757399        75.0326 
 625   0.0000       2.763246        75.1917 
 626   0.0000       2.766854        75.2899 
 627   0.0000       2.771966        75.4290 
 628   0.0000       2.774721        75.5040 
 629   0.0000       2.777082        75.5682 
 630   0.0000       2.783443        75.7413 
 631   0.0000       2.785765        75.8045 
 632   0.0000       2.789118        75.8958 
 633   0.0000       2.793768        76.0223 
 634   0.0000       2.802674        76.2646 
 635   0.0000       2.810652        76.4817 
 636   0.0000       2.814427        76.5844 
 637   0.0000       2.827314        76.9351 
 638   0.0000       2.837567        77.2141 
 639   0.0000       2.840644        77.2979 
 640   0.0000       2.846299        77.4517 
 641   0.0000       2.850868        77.5761 
 642   0.0000       2.859621        77.8143 
 643   0.0000       2.863903        77.9308 
 644   0.0000       2.873293        78.1863 
 645   0.0000       2.878214        78.3202 
 646   0.0000       2.879111        78.3446 
 647   0.0000       2.886386        78.5426 
 648   0.0000       2.890339        78.6501 
 649   0.0000       2.894618        78.7666 
 650   0.0000       2.903472        79.0075 
 651   0.0000       2.905151        79.0532 
 652   0.0000       2.911456        79.2247 
 653   0.0000       2.923560        79.5541 
 654   0.0000       2.925405        79.6043 
 655   0.0000       2.928782        79.6962 
 656   0.0000       2.933562        79.8263 
 657   0.0000       2.941874        80.0525 
 658   0.0000       2.947624        80.2089 
 659   0.0000       2.953533        80.3697 
 660   0.0000       2.954300        80.3906 
 661   0.0000       2.959032        80.5194 
 662   0.0000       2.968218        80.7693 
 663   0.0000       2.973171        80.9041 
 664   0.0000       2.983299        81.1797 
 665   0.0000       2.986345        81.2626 
 666   0.0000       2.987718        81.2999 
 667   0.0000       2.990538        81.3767 
 668   0.0000       3.006514        81.8114 
 669   0.0000       3.012165        81.9652 
 670   0.0000       3.018287        82.1318 
 671   0.0000       3.035751        82.6070 
 672   0.0000       3.041722        82.7695 
 673   0.0000       3.046066        82.8877 
 674   0.0000       3.046257        82.8929 
 675   0.0000       3.049143        82.9714 
 676   0.0000       3.053693        83.0952 
 677   0.0000       3.059208        83.2453 
 678   0.0000       3.061790        83.3155 
 679   0.0000       3.065542        83.4176 
 680   0.0000       3.074570        83.6633 
 681   0.0000       3.079389        83.7944 
 682   0.0000       3.082990        83.8924 
 683   0.0000       3.091434        84.1222 
 684   0.0000       3.104839        84.4870 
 685   0.0000       3.109766        84.6210 
 686   0.0000       3.114068        84.7381 
 687   0.0000       3.119478        84.8853 
 688   0.0000       3.123836        85.0039 
 689   0.0000       3.130746        85.1919 
 690   0.0000       3.133860        85.2767 
 691   0.0000       3.134969        85.3068 
 692   0.0000       3.147149        85.6383 
 693   0.0000       3.149535        85.7032 
 694   0.0000       3.159236        85.9672 
 695   0.0000       3.162583        86.0583 
 696   0.0000       3.164840        86.1197 
 697   0.0000       3.169388        86.2434 
 698   0.0000       3.174371        86.3790 
 699   0.0000       3.178593        86.4939 
 700   0.0000       3.185288        86.6761 
 701   0.0000       3.191291        86.8394 
 702   0.0000       3.193473        86.8988 
 703   0.0000       3.203113        87.1611 
 704   0.0000       3.207695        87.2858 
 705   0.0000       3.213851        87.4533 
 706   0.0000       3.216904        87.5364 
 707   0.0000       3.223878        87.7262 
 708   0.0000       3.237492        88.0966 
 709   0.0000       3.242247        88.2260 
 710   0.0000       3.246590        88.3442 
 711   0.0000       3.250458        88.4494 
 712   0.0000       3.252802        88.5132 
 713   0.0000       3.253279        88.5262 
 714   0.0000       3.263882        88.8148 
 715   0.0000       3.265783        88.8665 
 716   0.0000       3.266775        88.8935 
 717   0.0000       3.271932        89.0338 
 718   0.0000       3.279022        89.2267 
 719   0.0000       3.285548        89.4043 
 720   0.0000       3.287922        89.4689 
 721   0.0000       3.289772        89.5193 
 722   0.0000       3.297119        89.7192 
 723   0.0000       3.300163        89.8020 
 724   0.0000       3.309469        90.0552 
 725   0.0000       3.312152        90.1282 
 726   0.0000       3.322627        90.4133 
 727   0.0000       3.326621        90.5220 
 728   0.0000       3.331284        90.6488 
 729   0.0000       3.336159        90.7815 
 730   0.0000       3.339858        90.8821 
 731   0.0000       3.346334        91.0584 
 732   0.0000       3.348295        91.1117 
 733   0.0000       3.351533        91.1999 
 734   0.0000       3.355386        91.3047 
 735   0.0000       3.360427        91.4419 
 736   0.0000       3.365259        91.5734 
 737   0.0000       3.373044        91.7852 
 738   0.0000       3.376968        91.8920 
 739   0.0000       3.379640        91.9647 
[...]
 124   8.468     146.4   0.057338   0.051083  -18.957584  -16.621436     0.05 (  48->  72)    0.05 (  50->  73)    0.05 (  48->  73)
 125   8.498     145.9   0.016489   0.015626  -7.933031  -7.762238     0.26 (  69->  94)    0.05 (  69->  90)    0.04 (  68->  89)
 126   8.516     145.6   0.166113   0.155729  -6.663020  -8.930815     0.05 (  61->  74)    0.05 (  69->  94)    0.04 (  62->  77)
 127   8.544     145.1   0.074157   0.066105  -5.872025  -4.772673     0.05 (  61->  77)    0.05 (  67->  77)    0.04 (  61->  78)
 128   8.563     144.8   0.023842   0.021210  -14.827715  -14.008574     0.08 (  70->  97)    0.07 (  70->  98)    0.05 (  41->  71)
 129   8.569     144.7   0.104788   0.098275  -5.991766  -5.706975     0.33 (  62->  77)    0.07 (  62->  91)    0.07 (  62->  85)
 130   8.579     144.5   0.078661   0.076450  -5.981041  -6.834365     0.07 (  58->  72)    0.05 (  62->  77)    0.04 (  58->  74)
 131   8.583     144.4   0.006092   0.005951   4.050779   2.863686     0.05 (  68->  80)    0.04 (  66->  80)    0.04 (  63->  77)
 132   8.603     144.1   0.296440   0.274912  -9.929849  -9.530547     0.07 (  66->  79)    0.05 (  66->  78)    0.03 (  68->  78)
 133   8.636     143.6   0.015208   0.013220  -50.633940  -46.139913     0.05 (  69->  94)    0.05 (  70->  98)    0.04 (  68->  89)
 134   8.658     143.2   0.083054   0.071967  49.618284  47.060988     0.10 (  38->  71)    0.07 (  35->  71)    0.05 (  40->  71)
 135   8.663     143.1   0.028631   0.025295  -0.371455  -0.758904     0.05 (  38->  71)    0.04 (  59->  75)    0.03 (  35->  71)
 136   8.680     142.8   0.035040   0.033973  -66.608620  -64.915448     0.04 (  66->  80)    0.04 (  64->  73)    0.03 (  59->  75)
 137   8.685     142.8   0.004766   0.004645  19.942931  19.501111     0.07 (  59->  75)    0.04 (  64->  73)    0.04 (  64->  85)
 138   8.703     142.5   0.007943   0.007541  -10.475197  -10.000581     0.09 (  65->  80)    0.03 (  64->  80)    0.02 (  70-> 102)
 139   8.714     142.3   0.012190   0.010566   1.370161   1.783587     0.08 (  59->  75)    0.07 (  52->  71)    0.04 (  52->  76)
 140   8.718     142.2   0.000080   0.000229  -1.617950  -3.604582     0.07 (  70->  98)    0.06 (  70->  84)    0.04 (  70-> 100)
 141   8.730     142.0   0.017403   0.016114  14.568621  14.273764     0.05 (  64->  81)    0.05 (  65->  81)    0.05 (  64->  74)
 142   8.738     141.9   0.026841   0.025350  41.120932  39.826565     0.04 (  69->  84)    0.04 (  70-> 100)    0.04 (  68->  93)
 143   8.741     141.8   0.017392   0.016836  -2.789933  -2.124231     0.05 (  63->  79)    0.03 (  65->  81)    0.03 (  65->  86)
 144   8.749     141.7   0.001638   0.001653   4.072090   4.236782     0.07 (  53->  71)    0.05 (  64->  81)    0.02 (  59->  75)
 145   8.764     141.5   0.054596   0.049190  -38.295661  -36.564182     0.05 (  59->  75)    0.05 (  61->  74)    0.03 (  52->  71)
 146   8.786     141.1   0.067566   0.061769  13.108304  11.826927     0.05 (  69->  84)    0.05 (  69->  96)    0.05 (  69->  97)
 147   8.808     140.8   0.009669   0.008518  10.502187  10.288671     0.08 (  56->  72)    0.06 (  60->  84)    0.05 (  60->  73)
 148   8.830     140.4   0.012061   0.009858  -8.089931  -6.824606     0.04 (  70->  84)    0.03 (  66->  85)    0.03 (  70->  81)
 149   8.842     140.2   0.048786   0.045326  42.880163  40.659506     0.04 (  64->  88)    0.04 (  64->  86)    0.03 (  65->  84)
 150   8.852     140.1   0.009185   0.007990  -1.992317  -1.362445     0.14 (  69->  96)    0.02 (  63->  83)    0.02 (  64->  86)
 151   8.874     139.7   0.001326   0.001128  -3.876420  -4.001434     0.03 (  69->  84)    0.03 (  69->  96)    0.03 (  70->  81)
 152   8.881     139.6   0.020558   0.019040   0.454620  -1.235345     0.07 (  70->  81)    0.05 (  50->  72)    0.05 (  61->  77)
 153   8.888     139.5   0.089194   0.083524  40.065655  38.706769     0.08 (  61->  77)    0.05 (  57->  77)    0.02 (  68->  77)
 154   8.913     139.1   0.003546   0.003250  14.574404  14.449400     0.03 (  53->  71)    0.02 (  50->  72)    0.02 (  52->  71)
 155   8.926     138.9   0.004805   0.004254   9.245847   8.484218     0.05 (  64->  84)    0.05 (  65->  84)    0.03 (  56->  73)
 156   8.932     138.8   0.027270   0.024984  -2.366466  -3.081575     0.04 (  55->  71)    0.03 (  40->  72)    0.03 (  38->  71)
 157   8.949     138.5   0.006569   0.005849   4.525059   4.467779     0.05 (  67->  93)    0.04 (  70-> 102)    0.03 (  52->  71)
 158   8.956     138.4   0.017428   0.018297   3.621726   3.836628     0.09 (  69->  85)    0.03 (  64->  84)    0.03 (  69->  81)
 159   8.976     138.1   0.014354   0.013536   7.585215   6.566089     0.12 (  64->  84)    0.08 (  62->  81)    0.04 (  62->  73)
 160   8.982     138.0   0.039611   0.036253  -9.783757  -10.012149     0.04 (  53->  71)    0.04 (  66->  81)    0.03 (  62->  81)
 161   8.994     137.9   0.008714   0.007369   8.972302   8.244569     0.06 (  62->  81)    0.04 (  52->  71)    0.04 (  62->  73)
 162   8.998     137.8   0.011825   0.009537   6.970415   6.355903     0.11 (  52->  71)    0.03 (  57->  77)    0.02 (  49->  76)
 163   9.013     137.6   0.009367   0.007761  12.661248  10.337129     0.04 (  57->  78)    0.03 (  64->  84)    0.03 (  59->  85)
 164   9.025     137.4   0.002627   0.001854   3.065076   3.308432     0.06 (  55->  72)    0.04 (  69->  98)    0.04 (  66->  82)
 165   9.037     137.2   0.017265   0.015212  12.406251  11.637749     0.06 (  62->  73)    0.06 (  55->  72)    0.05 (  64->  82)
 166   9.042     137.1   0.016043   0.014963  -48.360983  -46.759612     0.09 (  54->  72)    0.04 (  54->  74)    0.03 (  65->  82)
 167   9.055     136.9   0.006137   0.004931  -8.312431  -7.248530     0.05 (  69->  98)    0.04 (  69->  97)    0.03 (  69->  91)
 168   9.079     136.6   0.001969   0.001879   5.623744   5.599659     0.11 (  67->  75)    0.07 (  68->  75)    0.05 (  50->  75)
 169   9.105     136.2   0.006676   0.006633   2.402021   1.572874     0.14 (  69->  98)    0.06 (  70->  85)    0.05 (  69->  85)
 170   9.111     136.1   0.006345   0.006512  -17.852989  -18.320559     0.05 (  63->  80)    0.03 (  69->  85)    0.03 (  68->  91)
 171   9.130     135.8   0.016718   0.015871  -5.391889  -5.746910     0.05 (  67->  75)    0.05 (  61->  76)    0.05 (  57->  73)
 172   9.150     135.5   0.001560   0.001095  -14.144001  -11.716958     0.16 (  52->  79)    0.06 (  52->  76)    0.04 (  56->  73)
 173   9.155     135.4   0.002802   0.002667   1.611360   1.432709     0.04 (  68->  86)    0.04 (  68->  96)    0.03 (  67->  76)
 174   9.169     135.2   0.008178   0.007787  12.856821  12.338877     0.03 (  52->  79)    0.03 (  60->  84)    0.03 (  56->  73)
 175   9.189     134.9   0.001439   0.001615  -4.590569  -3.985254     0.02 (  69-> 102)    0.02 (  68->  96)    0.02 (  52->  79)
 176   9.210     134.6   0.027724   0.024266  -18.304342  -17.191836     0.07 (  56->  77)    0.05 (  60->  77)    0.05 (  44->  72)
 177   9.237     134.2   0.012141   0.010911  -11.815596  -12.811671     0.05 (  49->  76)    0.04 (  60->  77)    0.03 (  56->  77)
 178   9.251     134.0   0.005711   0.004823  -9.182568  -7.534914     0.04 (  61->  80)    0.04 (  63->  78)    0.03 (  68->  79)
 179   9.267     133.8   0.016535   0.013297  -14.198595  -12.735819     0.03 (  70->  81)    0.02 (  56->  77)    0.02 (  60->  78)
 180   9.284     133.5   0.010313   0.009255  -5.630229  -5.412405     0.04 (  68->  95)    0.04 (  67->  95)    0.03 (  60->  75)
 181   9.295     133.4   0.012999   0.011709  -4.143646  -4.096113     0.10 (  60->  75)    0.04 (  56->  75)    0.03 (  67->  75)
 182   9.307     133.2   0.007680   0.006233  -1.954860  -1.668114     0.09 (  62->  86)    0.08 (  62->  77)    0.07 (  62->  87)
 183   9.316     133.1   0.016944   0.014803   0.246971   0.517910     0.04 (  63->  83)    0.04 (  66->  83)    0.03 (  53->  72)
 184   9.322     133.0   0.005759   0.005389  18.157831  17.272672     0.06 (  60->  75)    0.03 (  70->  81)    0.03 (  62->  86)
 185   9.339     132.8   0.013914   0.012215  -16.813683  -14.166506     0.03 (  61->  84)    0.03 (  50->  75)    0.02 (  61->  80)
 186   9.350     132.6   0.016290   0.013105   5.072836   1.692118     0.06 (  59->  73)    0.04 (  67->  75)    0.03 (  59->  81)
 187   9.362     132.4   0.016391   0.013862  15.998544  15.772241     0.04 (  61->  80)    0.04 (  53->  72)    0.04 (  53->  71)
 188   9.386     132.1   0.004746   0.004444  -3.715210  -3.199725     0.09 (  70->  81)    0.06 (  67->  75)    0.05 (  66->  75)
 189   9.392     132.0   0.015135   0.013595  -18.007422  -17.310774     0.07 (  63->  80)    0.04 (  63->  85)    0.04 (  63->  78)
 190   9.413     131.7   0.002776   0.002762   5.768501   6.343875     0.05 (  67->  86)    0.03 (  70->  82)    0.03 (  70->  81)
 191   9.431     131.5   0.006996   0.006438  16.436895  15.826958     0.12 (  69-> 102)    0.05 (  69-> 100)    0.03 (  68->  95)
 192   9.441     131.3   0.016191   0.012980   1.099439  -0.145622     0.04 (  53->  71)    0.03 (  67->  86)    0.03 (  61->  86)
 193   9.456     131.1   0.010974   0.010518   0.205950   0.568561     0.05 (  48->  71)    0.04 (  63->  79)    0.03 (  70->  81)
 194   9.465     131.0   0.016079   0.013982   4.782844   1.693156     0.03 (  66->  80)    0.03 (  65->  80)    0.03 (  53->  72)
 195   9.471     130.9   0.016579   0.014606  26.823435  25.275062     0.15 (  52->  79)    0.08 (  49->  71)    0.05 (  51->  72)
 196   9.483     130.7   0.001897   0.001748  -2.262945  -2.155817     0.05 (  65->  80)    0.04 (  65->  79)    0.04 (  60->  85)
 197   9.499     130.5   0.020990   0.018887  -23.364049  -21.124349     0.02 (  56->  78)    0.02 (  67->  74)    0.02 (  69->  81)
 198   9.514     130.3   0.044863   0.040652  13.042103  11.235788     0.03 (  56->  78)    0.03 (  67->  97)    0.03 (  68->  98)
 199   9.530     130.1   0.021672   0.019319  -9.340409  -8.697486     0.10 (  51->  72)    0.07 (  52->  79)    0.05 (  52->  71)
 200   9.543     129.9   0.014347   0.011458  -7.590613  -7.061411     0.05 (  61->  86)    0.03 (  61->  85)    0.03 (  67->  77)
 201   9.551     129.8   0.030593   0.029396  21.011974  20.201597     0.06 (  69->  81)    0.05 (  51->  72)    0.03 (  69->  82)
 202   9.559     129.7   0.006489   0.005828   7.950405   6.941703     0.11 (  69->  81)    0.05 (  69->  82)    0.04 (  69->  84)
 203   9.561     129.7   0.022709   0.020815  -12.040456  -12.247916     0.04 (  50->  72)    0.03 (  69->  81)    0.02 (  53->  71)
 204   9.571     129.5   0.053964   0.050875  -36.405883  -36.813077     0.04 (  61->  84)    0.02 (  64->  75)    0.02 (  56->  78)
 205   9.597     129.2   0.009730   0.008475  -31.857120  -29.363576     0.07 (  64->  75)    0.06 (  65->  75)    0.05 (  66->  75)
 206   9.612     129.0   0.004310   0.003722   0.960625   0.057080     0.10 (  49->  71)    0.03 (  49->  73)    0.02 (  47->  71)
 207   9.615     128.9   0.001074   0.001029  -2.645173  -1.408317     0.10 (  64->  75)    0.09 (  65->  75)    0.06 (  66->  75)
 208   9.628     128.8   0.017120   0.014748  -12.178432  -10.817071     0.15 (  49->  71)    0.03 (  49->  73)    0.03 (  45->  73)
 209   9.648     128.5   0.017730   0.014728  25.278132  25.399885     0.04 (  70-> 104)    0.04 (  61->  85)    0.03 (  68->  99)
 210   9.655     128.4   0.011625   0.009126  -7.451894  -6.857441     0.08 (  52->  72)    0.05 (  47->  71)    0.04 (  52->  71)
 211   9.657     128.4   0.029992   0.026518  -22.622117  -21.884896     0.07 (  67->  77)    0.03 (  57->  77)    0.03 (  65->  77)
 212   9.680     128.1   0.013623   0.009879  -0.126568  -0.173765     0.05 (  59->  85)    0.05 (  69-> 102)    0.03 (  69-> 100)
 213   9.693     127.9   0.011287   0.009577  28.492860  26.820894     0.18 (  70-> 103)    0.05 (  70-> 102)    0.03 (  70-> 104)
 214   9.702     127.8   0.003884   0.003580  -0.643901  -1.377638     0.09 (  31->  71)    0.07 (  62->  73)    0.03 (  62->  74)
 215   9.708     127.7   0.009357   0.007882   5.709257   6.251789     0.05 (  70-> 103)    0.04 (  61->  79)    0.04 (  61->  85)
 216   9.724     127.5   0.001419   0.001276  -1.968160  -1.963926     0.12 (  62->  73)    0.08 (  64->  76)    0.07 (  64->  74)
 217   9.727     127.5   0.023057   0.019971  18.202987  17.246905     0.05 (  59->  84)    0.03 (  64->  78)    0.02 (  31->  71)
 218   9.754     127.1   0.022326   0.019955   8.717232   7.864728     0.21 (  62->  89)    0.17 (  62->  90)    0.07 (  62->  87)
 219   9.754     127.1   0.005890   0.004943   2.704585   1.466240     0.07 (  31->  71)    0.07 (  62->  73)    0.04 (  64->  76)
 220   9.764     127.0   0.017095   0.016572   3.938160   5.136503     0.05 (  50->  74)    0.05 (  59->  84)    0.04 (  69->  81)
 221   9.774     126.8   0.003342   0.003128   1.630610   0.995958     0.06 (  67->  88)    0.04 (  70-> 102)    0.03 (  67->  89)
 222   9.778     126.8   0.046592   0.038758  -61.381813  -58.194579     0.04 (  70-> 106)    0.04 (  69-> 103)    0.04 (  61->  91)
 223   9.796     126.6   0.024786   0.024496  30.502771  32.520044     0.06 (  69-> 103)    0.03 (  67->  84)    0.03 (  69-> 102)
 224   9.801     126.5   0.006854   0.005706  -1.978500  -1.839421     0.05 (  46->  72)    0.03 (  46->  73)    0.03 (  51->  72)
 225   9.817     126.3   0.009775   0.009621  10.765816  10.611635     0.04 (  46->  72)    0.03 (  31->  71)    0.03 (  46->  73)
 226   9.827     126.2   0.003235   0.002533  -0.793513  -2.135444     0.12 (  58->  77)    0.06 (  67->  93)    0.06 (  70-> 102)
 227   9.831     126.1   0.006126   0.005758  -0.195104   0.262414     0.09 (  46->  72)    0.05 (  46->  73)    0.04 (  44->  72)
 228   9.836     126.1   0.006471   0.005968  -2.874931  -3.369072     0.12 (  58->  77)    0.09 (  58->  81)    0.08 (  58->  73)
 229   9.848     125.9   0.004578   0.004560  -8.399362  -7.942850     0.11 (  58->  77)    0.08 (  58->  81)    0.05 (  58->  73)
 230   9.850     125.9   0.007743   0.006255  20.238810  19.444632     0.16 (  58->  77)    0.03 (  60->  84)    0.02 (  56->  74)
 231   9.861     125.7   0.000401   0.000261   3.472336   2.962843     0.07 (  58->  77)    0.02 (  70->  86)    0.02 (  58->  81)
 232   9.873     125.6   0.012530   0.012298  30.703598  30.728995     0.03 (  58->  77)    0.03 (  47->  71)    0.02 (  65->  82)
 233   9.899     125.2   0.003002   0.003272   6.792321   7.319009     0.10 (  69-> 103)    0.04 (  42->  72)    0.04 (  70-> 103)
 234   9.902     125.2   0.015000   0.014446  -2.347397  -2.252783     0.05 (  60->  80)    0.05 (  60->  76)    0.03 (  32->  71)
 235   9.918     125.0   0.007670   0.007010  14.496726  13.623256     0.08 (  60->  88)    0.08 (  60->  86)    0.03 (  62->  89)
 236   9.940     124.7   0.003016   0.002849   8.141235   8.332965     0.04 (  42->  73)    0.04 (  42->  72)    0.03 (  43->  73)
 237   9.948     124.6   0.007939   0.008468  -5.215414  -4.852349     0.05 (  45->  73)    0.05 (  43->  72)    0.04 (  43->  73)
 238   9.951     124.6   0.010860   0.010216  -11.758543  -11.485855     0.10 (  56->  81)    0.05 (  60->  81)    0.05 (  38->  72)
 239   9.962     124.5   0.019291   0.020216  29.104305  29.534189     0.04 (  32->  71)    0.03 (  32->  72)    0.02 (  59->  84)
 240   9.976     124.3   0.052383   0.049900  18.192299  16.824574     0.03 (  60->  85)    0.03 (  56->  86)    0.03 (  70-> 103)
 241   9.985     124.2   0.008710   0.006859  29.770094  26.315767     0.08 (  59->  81)    0.05 (  69-> 103)    0.04 (  59->  84)
 242   9.986     124.2   0.008366   0.007416   9.169364   8.119310     0.03 (  69-> 105)    0.03 (  66->  93)    0.02 (  32->  71)

sTD-DFT done

Total run time:       42.287 sec

           *** ORCA-CIS/TD-DFT FINISHED WITHOUT ERROR ***


-------------------------------------------------------------------------------
                          DFT DISPERSION CORRECTION                            
                                                                               
                              DFTD3 V3.1  Rev 1                                
                              USING zero damping                               
-------------------------------------------------------------------------------
The omegaB97X-D3 functional is recognized. Fit by Chai et al.
Active option DFTDOPT                   ...         3   

molecular C6(AA) [au] = 33045.157534 


            DFT-D V3
 parameters
 s6 scaling factor         :     1.0000 
 rs6 scaling factor        :     1.2810 
 s8 scaling factor         :     1.0000 
 rs8 scaling factor        :     1.0940 
 Damping factor alpha6     :    14.0000 
 Damping factor alpha8     :    16.0000 
 ad hoc parameters k1-k3   :    16.0000     1.3333    -4.0000 

 Edisp/kcal,au: -11.716436844079  -0.018671328607 
 E6   /kcal   :  -5.446723705 
 E8   /kcal   :  -6.269713139 
 % E8         :  53.512114835 

-------------------------   ----------------
Dispersion correction           -0.018671329
-------------------------   ----------------


-------------------------   --------------------
FINAL SINGLE POINT ENERGY     -2115.840140588142
-------------------------   --------------------


                            ***************************************
                            *     ORCA property calculations      *
                            ***************************************

                                    ---------------------
                                    Active property flags
                                    ---------------------
   (+) Dipole Moment
   (+) Quadrupole Moment


------------------------------------------------------------------------------
                       ORCA ELECTRIC PROPERTIES CALCULATION
------------------------------------------------------------------------------

Dipole Moment Calculation                       ... on
Quadrupole Moment Calculation                   ... on
Polarizability Calculation                      ... off
GBWName                                         ... total_job2.gbw
Electron density file                           ... total_job2.scfp.tmp

-------------
DIPOLE MOMENT
-------------
                                X             Y             Z
Electronic contribution:     29.89545       4.63632       1.05619
Nuclear contribution   :    -31.58598      -4.90695      -1.26878
                        -----------------------------------------
Total Dipole Moment    :     -1.69053      -0.27063      -0.21259
                        -----------------------------------------
Magnitude (a.u.)       :      1.72520
Magnitude (Debye)      :      4.38512


------------------------
QUADRUPOLE MOMENT (A.U.)
------------------------

                XX           YY           ZZ           XY           XZ           YZ
  NUC     22050.72781   2170.87332    738.29346   -525.61499   2444.27620   -840.82833
  EL     -22162.31762  -2316.46643   -882.63144    504.56859  -2439.37475    832.44382
  TOT      -111.58982   -145.59311   -144.33797    -21.04640      4.90146     -8.38451

--------------------------------------------------------------------------
[[30809,1],4]: A high-performance Open MPI point-to-point messaging module
was unable to find any relevant network interfaces:

Module: OpenFabrics (openib)
  Host: cx1-105-14-3

Another transport will be used instead, although this may result in
lower performance.
--------------------------------------------------------------------------

Timings for individual modules:

Sum of individual times         ...      181.049 sec (=   3.017 min)
GTO integral calculation        ...        5.666 sec (=   0.094 min)   3.1 %
SCF iterations                  ...      130.701 sec (=   2.178 min)  72.2 %
CIS module                      ...       44.682 sec (=   0.745 min)  24.7 %



                             ****ORCA TERMINATED NORMALLY****
TOTAL RUN TIME: 0 days 0 hours 11 minutes 19 seconds 495 msec
