
                                 *****************
                                 * O   R   C   A *
                                 *****************

           --- An Ab Initio, DFT and Semiempirical electronic structure package ---

                  #######################################################
                  #                        -***-                        #
                  #  Department of molecular theory and spectroscopy    #
                  #              Directorship: Frank Neese              #
                  # Max Planck Institute for Chemical Energy Conversion #
                  #                  D-45470 Muelheim/Ruhr              #
                  #                       Germany                       #
                  #                                                     #
                  #                  All rights reserved                #
                  #                        -***-                        #
                  #######################################################


                         Program Version 4.0.0 -  RELEASE  -


 With contributions from (in alphabetic order):
   Daniel Aravena         : Magnetic Properties
   Michael Atanasov       : Ab Initio Ligand Field Theory
   Ute Becker             : Parallelization
   Martin Brehm           : Molecular dynamics
   Dmytro Bykov           : SCF Hessian
   Vijay G. Chilkuri      : MRCI spin determinant printing
   Dipayan Datta          : RHF DLPNO-CCSD density
   Achintya Kumar Dutta   : EOM-CC, STEOM-CC
   Dmitry Ganyushin       : Spin-Orbit,Spin-Spin,Magnetic field MRCI
   Yang Guo               : DLPNO-NEVPT2, CIM, IAO-localization
   Andreas Hansen         : Spin unrestricted coupled pair/coupled cluster methods
   Lee Huntington         : MR-EOM, pCC
   Robert Izsak           : Overlap fitted RIJCOSX, COSX-SCS-MP3, EOM
   Christian Kollmar      : KDIIS, OOCD, Brueckner-CCSD(T), CCSD density
   Simone Kossmann        : Meta GGA functionals, TD-DFT gradient, OOMP2, MP2 Hessian
   Martin Krupicka        : AUTO-CI
   Dagmar Lenk            : GEPOL surface
   Dimitrios Liakos       : Extrapolation schemes; parallel MDCI
   Dimitrios Manganas     : ROCIS; embedding schemes
   Dimitrios Pantazis     : SARC Basis sets
   Taras Petrenko         : DFT Hessian,TD-DFT gradient, ASA, ECA, R-Raman, ABS, FL, XAS/XES, NRVS
   Peter Pinski           : DLPNO-MP2
   Christoph Reimann      : Effective Core Potentials
   Marius Retegan         : Local ZFS, SOC
   Christoph Riplinger    : Optimizer, TS searches, QM/MM, DLPNO-CCSD(T), (RO)-DLPNO pert. Triples
   Tobias Risthaus        : Range-separated hybrids, TD-DFT gradient, RPA, STAB
   Michael Roemelt        : Restricted open shell CIS
   Masaaki Saitow         : Open-shell DLPNO
   Barbara Sandhoefer     : DKH picture change effects
   Kantharuban Sivalingam : CASSCF convergence, NEVPT2, FIC-MRCI
   Georgi Stoychev        : AutoAux
   Boris Wezisla          : Elementary symmetry handling
   Frank Wennmohs         : Technical directorship


 We gratefully acknowledge several colleagues who have allowed us to
 interface, adapt or use parts of their codes:
   Stefan Grimme, W. Hujo, H. Kruse,             : VdW corrections, initial TS optimization,
                  C. Bannwarth                     DFT functionals, gCP, sTDA/sTD-DF
   Ed Valeev                                     : LibInt (2-el integral package), F12 methods
   Garnet Chan, S. Sharma, J. Yang, R. Olivares  : DMRG
   Ulf Ekstrom                                   : XCFun DFT Library
   Mihaly Kallay                                 : mrcc  (arbitrary order and MRCC methods)
   Jiri Pittner, Ondrej Demel                    : Mk-CCSD
   Frank Weinhold                                : gennbo (NPA and NBO analysis)
   Christopher J. Cramer and Donald G. Truhlar   : smd solvation model


 Your calculation uses the libint2 library for the computation of 2-el integrals
 For citations please refer to: http://libint.valeyev.net

 This ORCA versions uses:
   CBLAS   interface :  Fast vector & matrix operations
   LAPACKE interface :  Fast linear algebra routines
   SCALAPACK package :  Parallel linear algebra routines


Your calculation utilizes the atom-pairwise dispersion correction
with the zero-damping scheme (D30)
Cite in your paper:
S.Grimme, J.Antony, S.Ehrlich and H.Krieg, J.Chem.Phys., 132, (2010), 154104 
   

XCFun DFT library Copyright 2009-2010 Ulf Ekstrom and contributors.
See http://admol.org/xcfun for more information. This is free soft-
ware; see the source code for copying conditions. There is ABSOLUTELY
NO WARRANTY; not even for MERCHANTABILITY or FITNESS FOR A PARTICULAR
PURPOSE. For details see the documentation. Scientific users of this 
library should cite U. Ekstrom, L. Visscher, R. Bast, A. J. Thorvald-
sen and K. Ruud; J.Chem.Theor.Comp. 2010, DOI: 10.1021/ct100117s
XCFun Version 0.99 
Your calculation utilizes the basis: def2-TZVP
   F. Weigend and R. Ahlrichs, Phys. Chem. Chem. Phys. 7, 3297 (2005).

Your calculation utilizes the auxiliary basis: def2/J
   F. Weigend, Phys. Chem. Chem. Phys. 8, 1057 (2006).

================================================================================
                                        WARNINGS
                       Please study these warnings very carefully!
================================================================================

Warning: TCutStore was < 0. Adjusted to Thresh (uncritical)
INFO   : Checking CIS options ...

WARNING: CIS/ROCIS methods need fully converged wavefunctions
  ===> : Setting SCFConvForced true
         You can overwrite this default with %scf ConvForced false 


INFO   : the flag for use of LIBINT has been found!

Your calculation utilizes the atom-pairwise dispersion correction
with the zero-damping scheme (D30)
Cite in your paper:
S.Grimme, J.Antony, S.Ehrlich and H.Krieg, J.Chem.Phys., 132, (2010), 154104 
   

XCFun DFT library Copyright 2009-2010 Ulf Ekstrom and contributors.
See http://admol.org/xcfun for more information. This is free soft-
ware; see the source code for copying conditions. There is ABSOLUTELY
NO WARRANTY; not even for MERCHANTABILITY or FITNESS FOR A PARTICULAR
PURPOSE. For details see the documentation. Scientific users of this 
library should cite U. Ekstrom, L. Visscher, R. Bast, A. J. Thorvald-
sen and K. Ruud; J.Chem.Theor.Comp. 2010, DOI: 10.1021/ct100117s
XCFun Version 0.99 
Your calculation utilizes the basis: def2-TZVP
   F. Weigend and R. Ahlrichs, Phys. Chem. Chem. Phys. 7, 3297 (2005).

Your calculation utilizes the auxiliary basis: def2/J
   F. Weigend, Phys. Chem. Chem. Phys. 8, 1057 (2006).

================================================================================
                                        WARNINGS
                       Please study these warnings very carefully!
================================================================================

INFO   : Checking CIS options ...

INFO   : the flag for use of LIBINT has been found!

================================================================================
                                       INPUT FILE
================================================================================
NAME = total.inp
|  1> # 
|  2> !wB97X-D3 def2-TZVP def2/J RIJCOSX Grid5 FinalGrid6 TightSCF
|  3> %pal 
|  4>  nprocs 24
|  5> end
|  6> %tddft
|  7>   Mode sTDDFT
|  8>   nroots 2
|  9>   Ethresh 10.0
| 10>   maxcore 5000
| 11>   triplets true
| 12> end
| 13> * xyz 0 1 
| 14> C 6.30674824 3.45277038 -0.13432880
| 15> C 5.53020877 2.34279778 0.08991085
| 16> C 6.11323044 1.03481868 0.05968723
| 17> C 7.52650272 0.90496892 -0.20098855
| 18> C 8.29911785 2.08985588 -0.42971430
| 19> C 7.70029574 3.32488602 -0.39707099
| 20> N 5.33293079 -0.05293424 0.27480168
| 21> C 5.92325560 -1.26989745 0.22892424
| 22> C 7.34689060 -1.39488255 -0.00253404
| 23> N 8.12936848 -0.30859848 -0.21937042
| 24> C 7.94605727 -2.69508130 0.00631587
| 25> C 7.17362180 -3.80696083 0.23840545
| 26> C 5.77664121 -3.69205915 0.45504150
| 27> C 5.13293759 -2.46473229 0.44611417
| 28> H 5.19714978 -4.59883663 0.61097760
| 29> H 7.62672335 -4.79504912 0.24715237
| 30> H 9.01450395 -2.78520221 -0.17007573
| 31> H 8.28885620 4.22215832 -0.57136019
| 32> H 4.46572597 2.44050561 0.28869215
| 33> H 5.86194994 4.44447944 -0.11361909
| 34> S 0.56538600 0.63457974 -1.06249479
| 35> C 0.35153481 -0.76036399 -0.00662244
| 36> C -0.97980143 -0.91914725 0.31932546
| 37> C -1.84526855 0.06519182 -0.26708791
| 38> C -1.14555617 0.97575740 -1.04473095
| 39> C 1.47543988 -1.56932752 0.41298994
| 40> C 2.80427104 -1.41300019 0.07335984
| 41> C 3.67246115 -2.39413077 0.65813275
| 42> C 2.97761149 -3.30132603 1.43923449
| 43> S 1.27073936 -2.95350468 1.48471975
| 44> H 3.14789224 -0.62880581 -0.59227223
| 45> H -1.33696463 -1.71867681 0.96210097
| 46> H 3.39995820 -4.12057071 2.00752572
| 47> H -1.56114089 1.81108726 -1.59345295
| 48> C -9.32394250 -0.66568884 1.01807206
| 49> C -8.08697706 -0.11005664 0.56827103
| 50> C -6.96377995 -0.74485569 1.09164967
| 51> S -7.44405297 -2.04556013 2.17386106
| 52> C -9.13671051 -1.71044755 1.89177692
| 53> C -5.66167295 -0.34174398 0.64581946
| 54> C -5.54181320 0.76035545 -0.19017727
| 55> C -6.74938600 1.63273532 -0.52607686
| 56> O -8.02508636 0.90275913 -0.33289547
| 57> C -4.19609621 1.00772257 -0.58336304
| 58> C -3.28553843 0.09891742 -0.06698248
| 59> S -4.11091359 -1.09963245 0.93884284
| 60> C -6.74811668 2.07558626 -1.99850028
| 61> H -10.29892125 -0.30539407 0.71107576
| 62> H -3.90351859 1.83120523 -1.22644603
| 63> H -7.64349353 2.64971963 -2.22364294
| 64> H -5.88143098 2.69649708 -2.21190576
| 65> H -6.72062987 1.21273079 -2.65900648
| 66> C -6.79687886 2.86069448 0.41605360
| 67> H -5.90176849 3.46672448 0.29769701
| 68> H -6.85620845 2.53898573 1.45304577
| 69> H -7.66461722 3.47923541 0.19904684
| 70> H 9.36358882 1.99479441 -0.62907218
| 71> H -9.91161397 -2.28605328 2.38106807
| 72> *
| 73> $new_job
| 74> # 
| 75> !wB97X-D3 def2-TZVP def2/J RIJCOSX Grid5 FinalGrid6 TightSCF
| 76> %pal 
| 77>  nprocs 24
| 78> end
| 79> %elprop
| 80>    dipole     true
| 81>    quadrupole true
| 82> end
| 83> %tddft
| 84>   Mode sTDDFT
| 85>   nroots 2
| 86>   Ethresh 10.0
| 87>   maxcore 5000
| 88> end
| 89> * xyz 0 1 
| 90> C 6.30674824 3.45277038 -0.13432880
| 91> C 5.53020877 2.34279778 0.08991085
| 92> C 6.11323044 1.03481868 0.05968723
| 93> C 7.52650272 0.90496892 -0.20098855
| 94> C 8.29911785 2.08985588 -0.42971430
| 95> C 7.70029574 3.32488602 -0.39707099
| 96> N 5.33293079 -0.05293424 0.27480168
| 97> C 5.92325560 -1.26989745 0.22892424
| 98> C 7.34689060 -1.39488255 -0.00253404
| 99> N 8.12936848 -0.30859848 -0.21937042
|100> C 7.94605727 -2.69508130 0.00631587
|101> C 7.17362180 -3.80696083 0.23840545
|102> C 5.77664121 -3.69205915 0.45504150
|103> C 5.13293759 -2.46473229 0.44611417
|104> H 5.19714978 -4.59883663 0.61097760
|105> H 7.62672335 -4.79504912 0.24715237
|106> H 9.01450395 -2.78520221 -0.17007573
|107> H 8.28885620 4.22215832 -0.57136019
|108> H 4.46572597 2.44050561 0.28869215
|109> H 5.86194994 4.44447944 -0.11361909
|110> S 0.56538600 0.63457974 -1.06249479
|111> C 0.35153481 -0.76036399 -0.00662244
|112> C -0.97980143 -0.91914725 0.31932546
|113> C -1.84526855 0.06519182 -0.26708791
|114> C -1.14555617 0.97575740 -1.04473095
|115> C 1.47543988 -1.56932752 0.41298994
|116> C 2.80427104 -1.41300019 0.07335984
|117> C 3.67246115 -2.39413077 0.65813275
|118> C 2.97761149 -3.30132603 1.43923449
|119> S 1.27073936 -2.95350468 1.48471975
|120> H 3.14789224 -0.62880581 -0.59227223
|121> H -1.33696463 -1.71867681 0.96210097
|122> H 3.39995820 -4.12057071 2.00752572
|123> H -1.56114089 1.81108726 -1.59345295
|124> C -9.32394250 -0.66568884 1.01807206
|125> C -8.08697706 -0.11005664 0.56827103
|126> C -6.96377995 -0.74485569 1.09164967
|127> S -7.44405297 -2.04556013 2.17386106
|128> C -9.13671051 -1.71044755 1.89177692
|129> C -5.66167295 -0.34174398 0.64581946
|130> C -5.54181320 0.76035545 -0.19017727
|131> C -6.74938600 1.63273532 -0.52607686
|132> O -8.02508636 0.90275913 -0.33289547
|133> C -4.19609621 1.00772257 -0.58336304
|134> C -3.28553843 0.09891742 -0.06698248
|135> S -4.11091359 -1.09963245 0.93884284
|136> C -6.74811668 2.07558626 -1.99850028
|137> H -10.29892125 -0.30539407 0.71107576
|138> H -3.90351859 1.83120523 -1.22644603
|139> H -7.64349353 2.64971963 -2.22364294
|140> H -5.88143098 2.69649708 -2.21190576
|141> H -6.72062987 1.21273079 -2.65900648
|142> C -6.79687886 2.86069448 0.41605360
|143> H -5.90176849 3.46672448 0.29769701
|144> H -6.85620845 2.53898573 1.45304577
|145> H -7.66461722 3.47923541 0.19904684
|146> H 9.36358882 1.99479441 -0.62907218
|147> H -9.91161397 -2.28605328 2.38106807
|148> *
|149> 
|150>                          ****END OF INPUT****
================================================================================


                 $$$$$$$$$$$$$$$$$$$$$$$$$$$$$$$$$$$$$$$$$$$$$$ 
                 $ THERE ARE  2 JOBS TO BE PROCESSED THIS RUN $
                 $$$$$$$$$$$$$$$$$$$$$$$$$$$$$$$$$$$$$$$$$$$$$$ 




                 $$$$$$$$$$$$$$$$  JOB NUMBER  1 $$$$$$$$$$$$$$


                       ****************************
                       * Single Point Calculation *
                       ****************************

---------------------------------
CARTESIAN COORDINATES (ANGSTROEM)
---------------------------------
  C      6.306748    3.452770   -0.134329
  C      5.530209    2.342798    0.089911
  C      6.113230    1.034819    0.059687
  C      7.526503    0.904969   -0.200989
  C      8.299118    2.089856   -0.429714
  C      7.700296    3.324886   -0.397071
  N      5.332931   -0.052934    0.274802
  C      5.923256   -1.269897    0.228924
  C      7.346891   -1.394883   -0.002534
  N      8.129368   -0.308598   -0.219370
  C      7.946057   -2.695081    0.006316
  C      7.173622   -3.806961    0.238405
  C      5.776641   -3.692059    0.455041
  C      5.132938   -2.464732    0.446114
  H      5.197150   -4.598837    0.610978
  H      7.626723   -4.795049    0.247152
  H      9.014504   -2.785202   -0.170076
  H      8.288856    4.222158   -0.571360
  H      4.465726    2.440506    0.288692
  H      5.861950    4.444479   -0.113619
  S      0.565386    0.634580   -1.062495
  C      0.351535   -0.760364   -0.006622
  C     -0.979801   -0.919147    0.319325
  C     -1.845269    0.065192   -0.267088
  C     -1.145556    0.975757   -1.044731
  C      1.475440   -1.569328    0.412990
  C      2.804271   -1.413000    0.073360
  C      3.672461   -2.394131    0.658133
  C      2.977611   -3.301326    1.439234
  S      1.270739   -2.953505    1.484720
  H      3.147892   -0.628806   -0.592272
  H     -1.336965   -1.718677    0.962101
  H      3.399958   -4.120571    2.007526
  H     -1.561141    1.811087   -1.593453
  C     -9.323942   -0.665689    1.018072
  C     -8.086977   -0.110057    0.568271
  C     -6.963780   -0.744856    1.091650
  S     -7.444053   -2.045560    2.173861
  C     -9.136711   -1.710448    1.891777
  C     -5.661673   -0.341744    0.645819
  C     -5.541813    0.760355   -0.190177
  C     -6.749386    1.632735   -0.526077
  O     -8.025086    0.902759   -0.332895
  C     -4.196096    1.007723   -0.583363
  C     -3.285538    0.098917   -0.066982
  S     -4.110914   -1.099632    0.938843
  C     -6.748117    2.075586   -1.998500
  H    -10.298921   -0.305394    0.711076
  H     -3.903519    1.831205   -1.226446
  H     -7.643494    2.649720   -2.223643
  H     -5.881431    2.696497   -2.211906
  H     -6.720630    1.212731   -2.659006
  C     -6.796879    2.860694    0.416054
  H     -5.901768    3.466724    0.297697
  H     -6.856208    2.538986    1.453046
  H     -7.664617    3.479235    0.199047
  H      9.363589    1.994794   -0.629072
  H     -9.911614   -2.286053    2.381068

----------------------------
CARTESIAN COORDINATES (A.U.)
----------------------------
  NO LB      ZA    FRAG     MASS         X           Y           Z
   0 C     6.0000    0    12.011   11.918027    6.524790   -0.253845
   1 C     6.0000    0    12.011   10.450580    4.427246    0.169907
   2 C     6.0000    0    12.011   11.552331    1.955524    0.112793
   3 C     6.0000    0    12.011   14.223029    1.710143   -0.379813
   4 C     6.0000    0    12.011   15.683060    3.949255   -0.812042
   5 C     6.0000    0    12.011   14.551450    6.283124   -0.750355
   6 N     7.0000    0    14.007   10.077779   -0.100031    0.519300
   7 C     6.0000    0    12.011   11.193331   -2.399758    0.432604
   8 C     6.0000    0    12.011   13.883611   -2.635946   -0.004789
   9 N     7.0000    0    14.007   15.362280   -0.583167   -0.414550
  10 C     6.0000    0    12.011   15.015872   -5.092966    0.011935
  11 C     6.0000    0    12.011   13.556181   -7.194113    0.450521
  12 C     6.0000    0    12.011   10.916270   -6.976981    0.859904
  13 C     6.0000    0    12.011    9.699846   -4.657669    0.843034
  14 H     1.0000    0     1.008    9.821190   -8.690542    1.154580
  15 H     1.0000    0     1.008   14.412418   -9.061330    0.467050
  16 H     1.0000    0     1.008   17.034944   -5.263269   -0.321397
  17 H     1.0000    0     1.008   15.663668    7.978723   -1.079714
  18 H     1.0000    0     1.008    8.438999    4.611887    0.545549
  19 H     1.0000    0     1.008   11.077480    8.398849   -0.214709
  20 S    16.0000    0    32.060    1.068425    1.199182   -2.007824
  21 C     6.0000    0    12.011    0.664305   -1.436880   -0.012515
  22 C     6.0000    0    12.011   -1.851556   -1.736937    0.603438
  23 C     6.0000    0    12.011   -3.487052    0.123195   -0.504723
  24 C     6.0000    0    12.011   -2.164787    1.843914   -1.974255
  25 C     6.0000    0    12.011    2.788177   -2.965599    0.780438
  26 C     6.0000    0    12.011    5.299304   -2.670183    0.138630
  27 C     6.0000    0    12.011    6.939946   -4.524251    1.243691
  28 C     6.0000    0    12.011    5.626870   -6.238602    2.719759
  29 S    16.0000    0    32.060    2.401349   -5.581315    2.805714
  30 H     1.0000    0     1.008    5.948654   -1.188271   -1.119232
  31 H     1.0000    0     1.008   -2.526497   -3.247828    1.818107
  32 H     1.0000    0     1.008    6.424990   -7.786750    3.793674
  33 H     1.0000    0     1.008   -2.950129    3.422459   -3.011190
  34 C     6.0000    0    12.011  -17.619698   -1.257970    1.923877
  35 C     6.0000    0    12.011  -15.282172   -0.207977    1.073877
  36 C     6.0000    0    12.011  -13.159637   -1.407573    2.062919
  37 S    16.0000    0    32.060  -14.067221   -3.865548    4.108002
  38 C     6.0000    0    12.011  -17.265881   -3.232277    3.574940
  39 C     6.0000    0    12.011  -10.699011   -0.645803    1.220422
  40 C     6.0000    0    12.011  -10.472509    1.436864   -0.359383
  41 C     6.0000    0    12.011  -12.754491    3.085423   -0.994141
  42 O     8.0000    0    15.999  -15.165215    1.705968   -0.629081
  43 C     6.0000    0    12.011   -7.929473    1.904320   -1.102396
  44 C     6.0000    0    12.011   -6.208768    0.186927   -0.126579
  45 S    16.0000    0    32.060   -7.768501   -2.078004    1.774156
  46 C     6.0000    0    12.011  -12.752092    3.922290   -3.776618
  47 H     1.0000    0     1.008  -19.462141   -0.577111    1.343738
  48 H     1.0000    0     1.008   -7.376581    3.460476   -2.317647
  49 H     1.0000    0     1.008  -14.444109    5.007244   -4.202076
  50 H     1.0000    0     1.008  -11.114294    5.095641   -4.179896
  51 H     1.0000    0     1.008  -12.700150    2.291729   -5.024794
  52 C     6.0000    0    12.011  -12.844240    5.405929    0.786227
  53 H     1.0000    0     1.008  -11.152726    6.551160    0.562566
  54 H     1.0000    0     1.008  -12.956356    4.797988    2.745859
  55 H     1.0000    0     1.008  -14.484027    6.574802    0.376144
  56 H     1.0000    0     1.008   17.694619    3.769615   -1.188774
  57 H     1.0000    0     1.008  -18.730236   -4.320015    4.499567

--------------------------------
INTERNAL COORDINATES (ANGSTROEM)
--------------------------------
 C      0   0   0     0.000000000000     0.00000000     0.00000000
 C      1   0   0     1.373075431959     0.00000000     0.00000000
 C      2   1   0     1.432353678716   120.30117607     0.00000000
 C      3   2   1     1.442966167263   118.98937643     0.38859776
 C      4   3   2     1.432901502475   118.85041660   359.60541130
 C      5   4   3     1.372935887731   120.32353650     0.15169883
 N      3   2   1     1.355856992960   119.66981488   180.40153443
 C      7   3   2     1.353361583353   117.71013478   179.59360102
 C      8   7   3     1.447732994660   120.79589002     1.81305506
 N      4   3   2     1.355186648424   121.24765164   178.96056098
 C      9   8   7     1.431640949696   119.27277708   177.62002027
 C     11   9   8     1.373607737927   120.05533183   359.71477665
 C     12  11   9     1.418339995580   120.93758696     0.80664254
 C     13  12  11     1.385916761173   121.88549699   359.83461946
 H     13  12  11     1.087369202691   118.63650042   178.51793235
 H     12  11   9     1.087058412440   120.18083209   180.09757956
 H     11   9   8     1.086652696575   119.06634586   179.85971419
 H      6   5   4     1.087141996548   120.16581977   180.02450670
 H      2   1   3     1.087283061934   120.72383567   180.24919779
 H      1   2   3     1.087088441415   120.19500619   179.83598190
 S     19   2   1     4.505521754064   139.17227565   132.27138786
 C     21  19   2     1.762517166108   104.04060594    87.61557495
 C     22  21  19     1.379822575952   110.46655713   142.98353094
 C     23  22  21     1.435909948794   113.96592050     0.04705815
 C     24  23  22     1.386887085478   112.02293585   359.97171550
 C     22  21  19     1.446948219077   121.46454838   323.12267778
 C     26  22  21     1.380427140677   127.81014324   359.16783330
 C     27  26  22     1.434688341900   113.87842570   180.23909233
 C     28  27  26     1.384174561968   111.98962669     0.39655611
 S     29  28  27     1.742544423699   112.06305302   359.20124701
 H     27  26  22     1.084482552799   122.54131988   359.04598042
 H     23  22  21     1.086265816918   122.80118144   180.03299749
 H     29  28  27     1.082817395155   126.60066205   181.65344516
 H     25  24  23     1.082396631457   126.67194656   179.94212844
 C     24  23  22     7.623410440089   117.17552402   177.10975532
 C     35  24  23     1.428681772831    19.99332003   174.04312183
 C     36  35  24     1.392288325959   113.75335593   347.73392336
 S     37  36  35     1.758884790605   110.37608070   359.45623464
 C     35  24  23     1.374749709070    92.65899956     5.99693399
 C     37  36  35     1.434136069673   119.17256925   175.70994242
 C     40  37  36     1.388481201114   119.25246378     6.58103438
 C     41  40  37     1.527123845483   121.17174353     6.34374125
 O     36  35  24     1.357102539762   122.60175666   164.89863451
 C     41  40  37     1.423636104825   112.69387671   182.04633316
 C     44  41  40     1.386250754420   113.83515361     0.56441042
 S     40  37  36     1.750746191432   129.08812719   189.95157958
 C     42  41  40     1.537579036667   111.99431594   219.58544957
 H     35  24  23     1.083809306315   143.40626842   191.82015097
 H     44  41  40     1.085025846270   123.39833900   180.66600006
 H     47  42  41     1.087206533928   110.47052966   176.98872000
 H     47  42  41     1.087297681351   110.67629267   296.94925108
 H     47  42  41     1.086988282858   110.68864270    57.02498482
 C     42  41  40     1.548466684833   110.08669977    95.90751467
 H     53  42  41     1.087429638081   110.51690008    60.81158730
 H     53  42  41     1.087368052095   110.32178609   301.09902989
 H     53  42  41     1.087499276959   110.73890448   181.13482536
 H      5   4   3     1.087142443919   119.00700753   180.16712906
 H     39  35  24     1.082221399806   126.44305302   183.49255599

---------------------------
INTERNAL COORDINATES (A.U.)
---------------------------
 C      0   0   0     0.000000000000     0.00000000     0.00000000
 C      1   0   0     2.594736527619     0.00000000     0.00000000
 C      2   1   0     2.706756179689   120.30117607     0.00000000
 C      3   2   1     2.726810876642   118.98937643     0.38859776
 C      4   3   2     2.707791416563   118.85041660   359.60541130
 C      5   4   3     2.594472827245   120.32353650     0.15169883
 N      3   2   1     2.562198393456   119.66981488   180.40153443
 C      7   3   2     2.557482752707   117.71013478   179.59360102
 C      8   7   3     2.735818874949   120.79589002     1.81305506
 N      4   3   2     2.560931625869   121.24765164   178.96056098
 C      9   8   7     2.705409317033   119.27277708   177.62002027
 C     11   9   8     2.595742440116   120.05533183   359.71477665
 C     12  11   9     2.680274156434   120.93758696     0.80664254
 C     13  12  11     2.619003123028   121.88549699   359.83461946
 H     13  12  11     2.054829999547   118.63650042   178.51793235
 H     12  11   9     2.054242691087   120.18083209   180.09757956
 H     11   9   8     2.053475999213   119.06634586   179.85971419
 H      6   5   4     2.054400642161   120.16581977   180.02450670
 H      2   1   3     2.054667217107   120.72383567   180.24919779
 H      1   2   3     2.054299437625   120.19500619   179.83598190
 S     19   2   1     8.514202205605   139.17227565   132.27138786
 C     21  19   2     3.330674750279   104.04060594    87.61557495
 C     22  21  19     2.607486781952   110.46655713   142.98353094
 C     23  22  21     2.713476556193   113.96592050     0.04705815
 C     24  23  22     2.620836770226   112.02293585   359.97171550
 C     22  21  19     2.734335864021   121.46454838   323.12267778
 C     26  22  21     2.608629243712   127.81014324   359.16783330
 C     27  26  22     2.711168053720   113.87842570   180.23909233
 C     28  27  26     2.615710843660   111.98962669     0.39655611
 S     29  28  27     3.292931736982   112.06305302   359.20124701
 H     27  26  22     2.049375021806   122.54131988   359.04598042
 H     23  22  21     2.052744902615   122.80118144   180.03299749
 H     29  28  27     2.046228329890   126.60066205   181.65344516
 H     25  24  23     2.045433201732   126.67194656   179.94212844
 C     24  23  22    14.406157938245   117.17552402   177.10975532
 C     35  24  23     2.699817283176    19.99332003   174.04312183
 C     36  35  24     2.631043635518   113.75335593   347.73392336
 S     37  36  35     3.323810555363   110.37608070   359.45623464
 C     35  24  23     2.597900452830    92.65899956     5.99693399
 C     37  36  35     2.710124410460   119.17256925   175.70994242
 C     40  37  36     2.623849212204   119.25246378     6.58103438
 C     41  40  37     2.885845840544   121.17174353     6.34374125
 O     36  35  24     2.564552135800   122.60175666   164.89863451
 C     41  40  37     2.690282352482   112.69387671   182.04633316
 C     44  41  40     2.619634278796   113.83515361     0.56441042
 S     40  37  36     3.308430831812   129.08812719   189.95157958
 C     42  41  40     2.905603288558   111.99431594   219.58544957
 H     35  24  23     2.048102770330   143.40626842   191.82015097
 H     44  41  40     2.050401697676   123.39833900   180.66600006
 H     47  42  41     2.054522600133   110.47052966   176.98872000
 H     47  42  41     2.054694843801   110.67629267   296.94925108
 H     47  42  41     2.054110165384   110.68864270    57.02498482
 C     42  41  40     2.926177961836   110.08669977    95.90751467
 H     53  42  41     2.054944205883   110.51690008    60.81158730
 H     53  42  41     2.054827825235   110.32178609   301.09902989
 H     53  42  41     2.055075804290   110.73890448   181.13482536
 H      5   4   3     2.054401487568   119.00700753   180.16712906
 H     39  35  24     2.045102061901   126.44305302   183.49255599

---------------------
BASIS SET INFORMATION
---------------------
There are 5 groups of distinct atoms

 Group   1 Type C   : 11s6p2d1f contracted to 5s3p2d1f pattern {62111/411/11/1}
 Group   2 Type N   : 11s6p2d1f contracted to 5s3p2d1f pattern {62111/411/11/1}
 Group   3 Type H   : 5s1p contracted to 3s1p pattern {311/1}
 Group   4 Type S   : 14s9p3d1f contracted to 5s5p2d1f pattern {73211/51111/21/1}
 Group   5 Type O   : 11s6p2d1f contracted to 5s3p2d1f pattern {62111/411/11/1}

Atom   0C    basis set group =>   1
Atom   1C    basis set group =>   1
Atom   2C    basis set group =>   1
Atom   3C    basis set group =>   1
Atom   4C    basis set group =>   1
Atom   5C    basis set group =>   1
Atom   6N    basis set group =>   2
Atom   7C    basis set group =>   1
Atom   8C    basis set group =>   1
Atom   9N    basis set group =>   2
Atom  10C    basis set group =>   1
Atom  11C    basis set group =>   1
Atom  12C    basis set group =>   1
Atom  13C    basis set group =>   1
Atom  14H    basis set group =>   3
Atom  15H    basis set group =>   3
Atom  16H    basis set group =>   3
Atom  17H    basis set group =>   3
Atom  18H    basis set group =>   3
Atom  19H    basis set group =>   3
Atom  20S    basis set group =>   4
Atom  21C    basis set group =>   1
Atom  22C    basis set group =>   1
Atom  23C    basis set group =>   1
Atom  24C    basis set group =>   1
Atom  25C    basis set group =>   1
Atom  26C    basis set group =>   1
Atom  27C    basis set group =>   1
Atom  28C    basis set group =>   1
Atom  29S    basis set group =>   4
Atom  30H    basis set group =>   3
Atom  31H    basis set group =>   3
Atom  32H    basis set group =>   3
Atom  33H    basis set group =>   3
Atom  34C    basis set group =>   1
Atom  35C    basis set group =>   1
Atom  36C    basis set group =>   1
Atom  37S    basis set group =>   4
Atom  38C    basis set group =>   1
Atom  39C    basis set group =>   1
Atom  40C    basis set group =>   1
Atom  41C    basis set group =>   1
Atom  42O    basis set group =>   5
Atom  43C    basis set group =>   1
Atom  44C    basis set group =>   1
Atom  45S    basis set group =>   4
Atom  46C    basis set group =>   1
Atom  47H    basis set group =>   3
Atom  48H    basis set group =>   3
Atom  49H    basis set group =>   3
Atom  50H    basis set group =>   3
Atom  51H    basis set group =>   3
Atom  52C    basis set group =>   1
Atom  53H    basis set group =>   3
Atom  54H    basis set group =>   3
Atom  55H    basis set group =>   3
Atom  56H    basis set group =>   3
Atom  57H    basis set group =>   3
-------------------------------
AUXILIARY BASIS SET INFORMATION
-------------------------------
There are 5 groups of distinct atoms

 Group   1 Type C   : 12s5p4d2f1g contracted to 6s4p3d1f1g pattern {711111/2111/211/2/1}
 Group   2 Type N   : 12s5p4d2f1g contracted to 6s4p3d1f1g pattern {711111/2111/211/2/1}
 Group   3 Type H   : 5s2p1d contracted to 3s1p1d pattern {311/2/1}
 Group   4 Type S   : 14s5p5d2f1g contracted to 8s4p3d1f1g pattern {71111111/2111/311/2/1}
 Group   5 Type O   : 12s5p4d2f1g contracted to 6s4p3d1f1g pattern {711111/2111/211/2/1}

Atom   0C    basis set group =>   1
Atom   1C    basis set group =>   1
Atom   2C    basis set group =>   1
Atom   3C    basis set group =>   1
Atom   4C    basis set group =>   1
Atom   5C    basis set group =>   1
Atom   6N    basis set group =>   2
Atom   7C    basis set group =>   1
Atom   8C    basis set group =>   1
Atom   9N    basis set group =>   2
Atom  10C    basis set group =>   1
Atom  11C    basis set group =>   1
Atom  12C    basis set group =>   1
Atom  13C    basis set group =>   1
Atom  14H    basis set group =>   3
Atom  15H    basis set group =>   3
Atom  16H    basis set group =>   3
Atom  17H    basis set group =>   3
Atom  18H    basis set group =>   3
Atom  19H    basis set group =>   3
Atom  20S    basis set group =>   4
Atom  21C    basis set group =>   1
Atom  22C    basis set group =>   1
Atom  23C    basis set group =>   1
Atom  24C    basis set group =>   1
Atom  25C    basis set group =>   1
Atom  26C    basis set group =>   1
Atom  27C    basis set group =>   1
Atom  28C    basis set group =>   1
Atom  29S    basis set group =>   4
Atom  30H    basis set group =>   3
Atom  31H    basis set group =>   3
Atom  32H    basis set group =>   3
Atom  33H    basis set group =>   3
Atom  34C    basis set group =>   1
Atom  35C    basis set group =>   1
Atom  36C    basis set group =>   1
Atom  37S    basis set group =>   4
Atom  38C    basis set group =>   1
Atom  39C    basis set group =>   1
Atom  40C    basis set group =>   1
Atom  41C    basis set group =>   1
Atom  42O    basis set group =>   5
Atom  43C    basis set group =>   1
Atom  44C    basis set group =>   1
Atom  45S    basis set group =>   4
Atom  46C    basis set group =>   1
Atom  47H    basis set group =>   3
Atom  48H    basis set group =>   3
Atom  49H    basis set group =>   3
Atom  50H    basis set group =>   3
Atom  51H    basis set group =>   3
Atom  52C    basis set group =>   1
Atom  53H    basis set group =>   3
Atom  54H    basis set group =>   3
Atom  55H    basis set group =>   3
Atom  56H    basis set group =>   3
Atom  57H    basis set group =>   3
-------------------------
ECP PARAMETER INFORMATION
-------------------------



--------------------------------------------------------------------------
[[36262,1],1]: A high-performance Open MPI point-to-point messaging module
was unable to find any relevant network interfaces:

Module: OpenFabrics (openib)
  Host: cx1-105-9-1

Another transport will be used instead, although this may result in
lower performance.
--------------------------------------------------------------------------


           ************************************************************
           *        Program running with 24 parallel MPI-processes    *
           *              working on a common directory               *
           ************************************************************
------------------------------------------------------------------------------
                           ORCA GTO INTEGRAL CALCULATION
                           -- RI-GTO INTEGRALS CHOSEN --
------------------------------------------------------------------------------

                         BASIS SET STATISTICS AND STARTUP INFO

Gaussian basis set:
 # of primitive gaussian shells          ...  908
 # of primitive gaussian functions       ... 1976
 # of contracted shells                  ...  506
 # of contracted basis functions         ... 1322
 Highest angular momentum                ...    3
 Maximum contraction depth               ...    7
Auxiliary gaussian basis set:
 # of primitive gaussian shells          ... 1084
 # of primitive gaussian functions       ... 3008
 # of contracted shells                  ...  678
 # of contracted aux-basis functions     ... 2090
 Highest angular momentum                ...    4
 Maximum contraction depth               ...    7
Ratio of auxiliary to basis functions    ...  1.58
Integral package used                  ... LIBINT
 One Electron integrals                  
   ECP integrals                         ... done
 Ordering auxiliary basis shells         ... done
 Integral threshhold             Thresh  ...  2.500e-11
 Primitive cut-off               TCut    ...  2.500e-12
 Pre-screening matrix                    ... done
 Shell pair data                         ... 
 Ordering of the shell pairs             ... done (   0.018 sec) 58207 of 128271 pairs
 Determination of significant pairs      ... done (   0.000 sec)
 Creation of shell pair data             ... done (   0.012 sec)
 Storage of shell pair data              ... done (   0.144 sec)
 Shell pair data done in (   0.174 sec)
 Computing two index integrals           ... done
 Cholesky decomposition of the V-matrix  ... done


Timings:
 Total evaluation time                   ...   7.698 sec (  0.128 min)
 One electron matrix time                ...   2.349 sec (  0.039 min) = 30.5%
 Schwartz matrix evaluation time         ...   3.609 sec (  0.060 min) = 46.9%
 Two index repulsion integral time       ...   0.722 sec (  0.012 min) =  9.4%
 Cholesky decomposition of V             ...   0.809 sec (  0.013 min) = 10.5%
 Three index repulsion integral time     ...   0.000 sec (  0.000 min) =  0.0%

--------------------------------------------------------------------------
[[36211,1],3]: A high-performance Open MPI point-to-point messaging module
was unable to find any relevant network interfaces:

Module: OpenFabrics (openib)
  Host: cx1-105-9-1

Another transport will be used instead, although this may result in
lower performance.
--------------------------------------------------------------------------


           ************************************************************
           *        Program running with 24 parallel MPI-processes    *
           *              working on a common directory               *
           ************************************************************
-------------------------------------------------------------------------------
                                 ORCA SCF
-------------------------------------------------------------------------------

------------
SCF SETTINGS
------------
Hamiltonian:
 Density Functional     Method          .... DFT(GTOs)
 Exchange Functional    Exchange        .... WB97X-D3
 Correlation Functional Correlation     .... WB97X-D3
 Gradients option       PostSCFGGA      .... off
 Hybrid DFT is turned on
   Fraction HF Exchange ScalHFX         ....  0.195728
   Scaling of DF-GGA-X  ScalDFX         ....  0.000000
   Scaling of DF-GGA-C  ScalDFC         ....  1.000000
   Scaling of DF-LDA-C  ScalLDAC        ....  1.000000
   Perturbative correction              ....  0.000000
 Long-range corrected/Screened/Range-Separated Hybrid DFT is turned on
   Amount of maximum screened exact exchange              ....  0.804272
   Range separation parameter mu (erf(mu*r12)/r12)        ....  0.250000
 RI-approximation to the Coulomb term is turned on
   Number of auxiliary basis functions  .... 2090
   RIJ-COSX (HFX calculated with COS-X)).... on


General Settings:
 Integral files         IntName         .... total
 Hartree-Fock type      HFTyp           .... RHF
 Total Charge           Charge          ....    0
 Multiplicity           Mult            ....    1
 Number of Electrons    NEL             ....  292
 Basis Dimension        Dim             .... 1322
 Nuclear Repulsion      ENuc            ....   4279.0734112206 Eh

Convergence Acceleration:
 DIIS                   CNVDIIS         .... on
   Start iteration      DIISMaxIt       ....    12
   Startup error        DIISStart       ....  0.200000
   # of expansion vecs  DIISMaxEq       ....     5
   Bias factor          DIISBfac        ....   1.050
   Max. coefficient     DIISMaxC        ....  10.000
 Newton-Raphson         CNVNR           .... off
 SOSCF                  CNVSOSCF        .... on
   Start iteration      SOSCFMaxIt      ....   150
   Startup grad/error   SOSCFStart      ....  0.003300
 Level Shifting         CNVShift        .... on
   Level shift para.    LevelShift      ....    0.2500
   Turn off err/grad.   ShiftErr        ....    0.0010
 Zerner damping         CNVZerner       .... off
 Static damping         CNVDamp         .... on
   Fraction old density DampFac         ....    0.7000
   Max. Damping (<1)    DampMax         ....    0.9800
   Min. Damping (>=0)   DampMin         ....    0.0000
   Turn off err/grad.   DampErr         ....    0.1000
 Fernandez-Rico         CNVRico         .... off

SCF Procedure:
 Maximum # iterations   MaxIter         ....   125
 SCF integral mode      SCFMode         .... Direct
   Integral package                     .... LIBINT
 Reset frequeny         DirectResetFreq ....    20
 Integral Threshold     Thresh          ....  2.500e-11 Eh
 Primitive CutOff       TCut            ....  2.500e-12 Eh

Convergence Tolerance:
 Convergence Check Mode ConvCheckMode   .... Total+1el-Energy
 Convergence forced     ConvForced      .... 1
 Energy Change          TolE            ....  1.000e-08 Eh
 1-El. energy change                    ....  1.000e-05 Eh
 Orbital Gradient       TolG            ....  1.000e-05
 Orbital Rotation angle TolX            ....  1.000e-05
 DIIS Error             TolErr          ....  5.000e-07


Diagonalization of the overlap matrix:
Smallest eigenvalue                        ... 5.687e-06
Time for diagonalization                   ...    0.582 sec
Threshold for overlap eigenvalues          ... 1.000e-08
Number of eigenvalues below threshold      ... 0
Time for construction of square roots      ...    0.687 sec
Total time needed                          ...    1.281 sec

-------------------
DFT GRID GENERATION
-------------------

General Integration Accuracy     IntAcc      ...  5.010
Radial Grid Type                 RadialGrid  ... Gauss-Chebyshev
Angular Grid (max. acc.)         AngularGrid ... Lebedev-434
Angular grid pruning method      GridPruning ... 3 (G Style)
Weight generation scheme         WeightScheme... Becke
Basis function cutoff            BFCut       ...    1.0000e-11
Integration weight cutoff        WCut        ...    1.0000e-14
Grids for H and He will be reduced by one unit

# of grid points (after initial pruning)     ... 544460 (   0.0 sec)
# of grid points (after weights+screening)   ... 474084 (   2.3 sec)
nearest neighbour list constructed           ...    0.0 sec
Grid point re-assignment to atoms done       ...    0.3 sec
Grid point division into batches done        ...    6.0 sec
Reduced shell lists constructed in    7.1 sec

Total number of grid points                  ...   474084
Total number of batches                      ...     7441
Average number of points per batch           ...       63
Average number of grid points per atom       ...     8174
Average number of shells per batch           ...   136.65 (27.01%)
Average number of basis functions per batch  ...   350.09 (26.48%)
Average number of large shells per batch     ...    89.18 (65.26%)
Average number of large basis fcns per batch ...   234.09 (66.87%)
Maximum spatial batch extension              ...   8.33, 17.12, 15.05 au
Average spatial batch extension              ...   0.05,  0.06,  0.06 au

Time for grid setup =   10.170 sec

------------------------------
INITIAL GUESS: MODEL POTENTIAL
------------------------------
Loading Hartree-Fock densities                     ... done
Calculating cut-offs                               ... done
Setting up the integral package                    ... done
Initializing the effective Hamiltonian             ... done
Starting the Coulomb interaction                   ... done (   0.9 sec)
Reading the grid                                   ... done
Mapping shells                                     ... done
Starting the XC term evaluation                    ... done (   2.7 sec)
  promolecular density results
     # of electrons  =    291.990298933
     EX              =   -285.308561223
     EC              =    -10.208821227
     EX+EC           =   -295.517382451
Transforming the Hamiltonian                       ... done (   0.3 sec)
Diagonalizing the Hamiltonian                      ... done (   0.6 sec)
Back transforming the eigenvectors                 ... done (   0.2 sec)
Now organizing SCF variables                       ... done
                      ------------------
                      INITIAL GUESS DONE (  15.3 sec)
                      ------------------
--------------------
COSX GRID GENERATION
--------------------

General Integration Accuracy     IntAcc      ...  3.340
Radial Grid Type                 RadialGrid  ... Gauss-Chebyshev
Angular Grid (max. acc.)         AngularGrid ... Lebedev-50
Angular grid pruning method      GridPruning ... 3 (G Style)
Weight generation scheme         WeightScheme... Becke
Basis function cutoff            BFCut       ...    1.0000e-11
Integration weight cutoff        WCut        ...    1.0000e-14
Grids for H and He will be reduced by one unit

# of grid points (after initial pruning)     ...  28916 (   0.0 sec)
# of grid points (after weights+screening)   ...  26218 (   0.1 sec)
nearest neighbour list constructed           ...    0.0 sec
Grid point re-assignment to atoms done       ...    0.0 sec
Grid point division into batches done        ...    0.0 sec
Reduced shell lists constructed in    0.1 sec

Total number of grid points                  ...    26218
Total number of batches                      ...      438
Average number of points per batch           ...       59
Average number of grid points per atom       ...      452
Average number of shells per batch           ...   147.80 (29.21%)
Average number of basis functions per batch  ...   380.80 (28.80%)
Average number of large shells per batch     ...   100.05 (67.69%)
Average number of large basis fcns per batch ...   265.65 (69.76%)
Maximum spatial batch extension              ...   5.61,  8.25, 15.93 au
Average spatial batch extension              ...   0.11,  0.12,  0.25 au

Overlap Fitting                  UseSFitting ... on
Constructing numerical overlap ... done (      0.2 sec)
Inverting numerical overlap    ... done (      0.2 sec)
Obtaining analytic overlap     ... done (      0.0 sec)
Final contraction and storage  ... done (      0.8 sec)


General Integration Accuracy     IntAcc      ...  3.670
Radial Grid Type                 RadialGrid  ... Gauss-Chebyshev
Angular Grid (max. acc.)         AngularGrid ... Lebedev-50
Angular grid pruning method      GridPruning ... 3 (G Style)
Weight generation scheme         WeightScheme... Becke
Basis function cutoff            BFCut       ...    1.0000e-11
Integration weight cutoff        WCut        ...    1.0000e-14
Grids for H and He will be reduced by one unit

# of grid points (after initial pruning)     ...  36228 (   0.0 sec)
# of grid points (after weights+screening)   ...  32723 (   0.2 sec)
nearest neighbour list constructed           ...    0.0 sec
Grid point re-assignment to atoms done       ...    0.0 sec
Grid point division into batches done        ...    0.0 sec
Reduced shell lists constructed in    0.1 sec

Total number of grid points                  ...    32723
Total number of batches                      ...      540
Average number of points per batch           ...       60
Average number of grid points per atom       ...      564
Average number of shells per batch           ...   149.08 (29.46%)
Average number of basis functions per batch  ...   383.58 (29.02%)
Average number of large shells per batch     ...    99.83 (66.96%)
Average number of large basis fcns per batch ...   264.33 (68.91%)
Maximum spatial batch extension              ...   5.61,  9.50, 17.39 au
Average spatial batch extension              ...   0.12,  0.11,  0.25 au

Overlap Fitting                  UseSFitting ... on
Constructing numerical overlap ... done (      0.2 sec)
Inverting numerical overlap    ... done (      0.2 sec)
Obtaining analytic overlap     ... done (      0.0 sec)
Final contraction and storage  ... done (      0.8 sec)


General Integration Accuracy     IntAcc      ...  4.010
Radial Grid Type                 RadialGrid  ... Gauss-Chebyshev
Angular Grid (max. acc.)         AngularGrid ... Lebedev-110
Angular grid pruning method      GridPruning ... 3 (G Style)
Weight generation scheme         WeightScheme... Becke
Basis function cutoff            BFCut       ...    1.0000e-11
Integration weight cutoff        WCut        ...    1.0000e-14
Grids for H and He will be reduced by one unit

# of grid points (after initial pruning)     ...  69754 (   0.0 sec)
# of grid points (after weights+screening)   ...  62493 (   0.3 sec)
nearest neighbour list constructed           ...    0.0 sec
Grid point re-assignment to atoms done       ...    0.0 sec
Grid point division into batches done        ...    0.1 sec
Reduced shell lists constructed in    0.3 sec

Total number of grid points                  ...    62493
Total number of batches                      ...     1004
Average number of points per batch           ...       62
Average number of grid points per atom       ...     1077
Average number of shells per batch           ...   144.95 (28.65%)
Average number of basis functions per batch  ...   371.70 (28.12%)
Average number of large shells per batch     ...    96.98 (66.90%)
Average number of large basis fcns per batch ...   256.33 (68.96%)
Maximum spatial batch extension              ...   9.72, 10.19, 27.58 au
Average spatial batch extension              ...   0.10,  0.09,  0.16 au

Overlap Fitting                  UseSFitting ... on
Constructing numerical overlap ... done (      0.3 sec)
Inverting numerical overlap    ... done (      0.2 sec)
Obtaining analytic overlap     ... done (      0.0 sec)
Final contraction and storage  ... done (      0.8 sec)

Time for X-Grid setup             =    5.552 sec
--------------
SCF ITERATIONS
--------------
ITER       Energy         Delta-E        Max-DP      RMS-DP      [F,P]     Damp
               ***  Starting incremental Fock matrix formation  ***
  0  -2970.0722006167   0.000000000000 0.05265540  0.00054254  0.1771526 0.7000
  1  -2970.4207971442  -0.348596527448 0.06920559  0.00047276  0.1058354 0.7000
                               ***Turning on DIIS***
  2  -2970.5930005195  -0.172203375306 0.16071114  0.00104391  0.0541376 0.0000
  3  -2970.8624384628  -0.269437943316 0.03840379  0.00034998  0.0456610 0.0000
  4  -2970.9145474163  -0.052108953456 0.01786107  0.00016171  0.0078762 0.0000
                      *** Initiating the SOSCF procedure ***
                           *** Shutting down DIIS ***
                      *** Re-Reading the Fockian *** 
                      *** Removing any level shift *** 
ITER      Energy       Delta-E        Grad      Rot      Max-DP    RMS-DP
  5  -2970.91663538  -0.0020879621  0.002245  0.002245  0.008048  0.000069
               *** Restarting incremental Fock matrix formation ***
  6  -2970.91721591  -0.0005805365  0.001701  0.005160  0.009903  0.000102
  7  -2970.91748792  -0.0002720102  0.001016  0.006850  0.008072  0.000073
  8  -2970.91755085  -0.0000629289  0.000481  0.001597  0.005195  0.000049
  9  -2970.91758449  -0.0000336378  0.000148  0.000519  0.000715  0.000008
 10  -2970.91758545  -0.0000009621  0.000106  0.000257  0.000504  0.000005
 11  -2970.91758688  -0.0000014256  0.000036  0.000151  0.000359  0.000002
 12  -2970.91758693  -0.0000000534  0.000024  0.000044  0.000205  0.000001
 13  -2970.91758705  -0.0000001188  0.000008  0.000037  0.000241  0.000002
 14  -2970.91758705   0.0000000049  0.000004  0.000015  0.000251  0.000001
                  ***Gradient check signals convergence***
              ***Rediagonalizing the Fockian in SOSCF/NRSCF***

               *****************************************************
               *                     SUCCESS                       *
               *           SCF CONVERGED AFTER  15 CYCLES          *
               *****************************************************

Old exchange energy                            =    -87.954467939 Eh
New exchange energy                            =    -87.955798597 Eh
Exchange energy change after final integration =     -0.001330657 Eh
Total energy after final integration           =  -2970.918917668 Eh
Final COS-X integration done in                =    68.263 sec

----------------
TOTAL SCF ENERGY
----------------

Total Energy       :        -2970.91891767 Eh          -80842.81372 eV

Components:
Nuclear Repulsion  :         4279.07341122 Eh          116439.50719 eV
Electronic Energy  :        -7249.99232889 Eh         -197282.32091 eV
One Electron Energy:       -12585.92039369 Eh         -342480.30527 eV
Two Electron Energy:         5335.92806480 Eh          145197.98437 eV

Virial components:
Potential Energy   :        -5931.32124754 Eh         -161399.45654 eV
Kinetic Energy     :         2960.40232987 Eh           80556.64282 eV
Virial Ratio       :            2.00355242


DFT components:
N(Alpha)           :      146.000005738676 electrons
N(Beta)            :      146.000005738676 electrons
N(Total)           :      292.000011477353 electrons
E(XC)              :     -212.681218687707 Eh       

---------------
SCF CONVERGENCE
---------------

  Last Energy change         ...    3.5506e-08  Tolerance :   1.0000e-08
  Last MAX-Density change    ...    2.5960e-14  Tolerance :   1.0000e-07
  Last RMS-Density change    ...    7.8656e-17  Tolerance :   5.0000e-09
  Last Orbital Gradient      ...    1.3052e-06  Tolerance :   1.0000e-05
  Last Orbital Rotation      ...    6.2243e-06  Tolerance :   1.0000e-05

             **** THE GBW FILE WAS UPDATED (total.gbw) ****
             **** DENSITY FILE WAS UPDATED (total.scfp.tmp) ****
             **** ENERGY FILE WAS UPDATED (total.en.tmp) ****
----------------
ORBITAL ENERGIES
----------------

  NO   OCC          E(Eh)            E(eV) 
   0   2.0000     -88.986025     -2421.4328 
   1   2.0000     -88.985394     -2421.4157 
   2   2.0000     -88.984076     -2421.3798 
   3   2.0000     -88.982058     -2421.3249 
   4   2.0000     -19.266064      -524.2563 
   5   2.0000     -14.446360      -393.1054 
   6   2.0000     -14.446078      -393.0978 
   7   2.0000     -10.368320      -282.1363 
   8   2.0000     -10.347882      -281.5802 
   9   2.0000     -10.341891      -281.4172 
  10   2.0000     -10.339156      -281.3427 
  11   2.0000     -10.338636      -281.3286 
  12   2.0000     -10.337997      -281.3112 
  13   2.0000     -10.332956      -281.1740 
  14   2.0000     -10.328798      -281.0609 
  15   2.0000     -10.327874      -281.0357 
  16   2.0000     -10.327013      -281.0123 
  17   2.0000     -10.317764      -280.7606 
  18   2.0000     -10.316872      -280.7364 
  19   2.0000     -10.316250      -280.7194 
  20   2.0000     -10.315802      -280.7073 
  21   2.0000     -10.315135      -280.6891 
  22   2.0000     -10.310594      -280.5655 
  23   2.0000     -10.304594      -280.4023 
  24   2.0000     -10.302576      -280.3474 
  25   2.0000     -10.302221      -280.3377 
  26   2.0000     -10.302147      -280.3357 
  27   2.0000     -10.301718      -280.3240 
  28   2.0000     -10.298515      -280.2368 
  29   2.0000     -10.298347      -280.2323 
  30   2.0000     -10.297305      -280.2039 
  31   2.0000     -10.296750      -280.1888 
  32   2.0000     -10.294041      -280.1151 
  33   2.0000     -10.293409      -280.0979 
  34   2.0000     -10.290305      -280.0134 
  35   2.0000     -10.288271      -279.9581 
  36   2.0000     -10.275805      -279.6189 
  37   2.0000     -10.272024      -279.5160 
  38   2.0000      -8.082159      -219.9267 
  39   2.0000      -8.081644      -219.9127 
  40   2.0000      -8.080361      -219.8778 
  41   2.0000      -8.077930      -219.8116 
  42   2.0000      -6.035496      -164.2342 
  43   2.0000      -6.034920      -164.2185 
  44   2.0000      -6.033662      -164.1843 
  45   2.0000      -6.031406      -164.1229 
  46   2.0000      -6.031355      -164.1215 
  47   2.0000      -6.031033      -164.1128 
  48   2.0000      -6.029562      -164.0727 
  49   2.0000      -6.029201      -164.0629 
  50   2.0000      -6.028527      -164.0446 
  51   2.0000      -6.027418      -164.0144 
  52   2.0000      -6.027286      -164.0108 
  53   2.0000      -6.024721      -163.9410 
  54   2.0000      -1.180450       -32.1217 
  55   2.0000      -1.101481       -29.9728 
  56   2.0000      -1.031590       -28.0710 
  57   2.0000      -1.019825       -27.7509 
  58   2.0000      -1.010214       -27.4893 
  59   2.0000      -0.998781       -27.1782 
  60   2.0000      -0.992154       -26.9979 
  61   2.0000      -0.985825       -26.8257 
  62   2.0000      -0.961996       -26.1772 
  63   2.0000      -0.929173       -25.2841 
  64   2.0000      -0.910558       -24.7775 
  65   2.0000      -0.900068       -24.4921 
  66   2.0000      -0.881658       -23.9911 
  67   2.0000      -0.877708       -23.8837 
  68   2.0000      -0.867635       -23.6095 
  69   2.0000      -0.862450       -23.4685 
  70   2.0000      -0.850517       -23.1437 
  71   2.0000      -0.843669       -22.9574 
  72   2.0000      -0.836006       -22.7489 
  73   2.0000      -0.819644       -22.3037 
  74   2.0000      -0.815560       -22.1925 
  75   2.0000      -0.801775       -21.8174 
  76   2.0000      -0.796801       -21.6821 
  77   2.0000      -0.762877       -20.7589 
  78   2.0000      -0.733516       -19.9600 
  79   2.0000      -0.732109       -19.9217 
  80   2.0000      -0.723193       -19.6791 
  81   2.0000      -0.717761       -19.5313 
  82   2.0000      -0.705717       -19.2035 
  83   2.0000      -0.694113       -18.8878 
  84   2.0000      -0.678931       -18.4746 
  85   2.0000      -0.673530       -18.3277 
  86   2.0000      -0.666818       -18.1450 
  87   2.0000      -0.655077       -17.8256 
  88   2.0000      -0.650791       -17.7089 
  89   2.0000      -0.642456       -17.4821 
  90   2.0000      -0.628254       -17.0957 
  91   2.0000      -0.614998       -16.7349 
  92   2.0000      -0.603363       -16.4183 
  93   2.0000      -0.591586       -16.0979 
  94   2.0000      -0.585017       -15.9191 
  95   2.0000      -0.581197       -15.8152 
  96   2.0000      -0.578552       -15.7432 
  97   2.0000      -0.570363       -15.5204 
  98   2.0000      -0.566614       -15.4184 
  99   2.0000      -0.556140       -15.1333 
 100   2.0000      -0.553682       -15.0665 
 101   2.0000      -0.549847       -14.9621 
 102   2.0000      -0.542829       -14.7711 
 103   2.0000      -0.537763       -14.6333 
 104   2.0000      -0.530073       -14.4240 
 105   2.0000      -0.527824       -14.3628 
 106   2.0000      -0.520000       -14.1499 
 107   2.0000      -0.518684       -14.1141 
 108   2.0000      -0.509224       -13.8567 
 109   2.0000      -0.507435       -13.8080 
 110   2.0000      -0.502599       -13.6764 
 111   2.0000      -0.501357       -13.6426 
 112   2.0000      -0.500856       -13.6290 
 113   2.0000      -0.497032       -13.5249 
 114   2.0000      -0.495199       -13.4750 
 115   2.0000      -0.488871       -13.3029 
 116   2.0000      -0.483455       -13.1555 
 117   2.0000      -0.480873       -13.0852 
 118   2.0000      -0.477480       -12.9929 
 119   2.0000      -0.471199       -12.8220 
 120   2.0000      -0.469430       -12.7738 
 121   2.0000      -0.462603       -12.5881 
 122   2.0000      -0.461953       -12.5704 
 123   2.0000      -0.460003       -12.5173 
 124   2.0000      -0.456225       -12.4145 
 125   2.0000      -0.452135       -12.3032 
 126   2.0000      -0.449036       -12.2189 
 127   2.0000      -0.446750       -12.1567 
 128   2.0000      -0.440117       -11.9762 
 129   2.0000      -0.430668       -11.7191 
 130   2.0000      -0.429800       -11.6955 
 131   2.0000      -0.423650       -11.5281 
 132   2.0000      -0.412993       -11.2381 
 133   2.0000      -0.407790       -11.0965 
 134   2.0000      -0.398812       -10.8522 
 135   2.0000      -0.379368       -10.3231 
 136   2.0000      -0.362676        -9.8689 
 137   2.0000      -0.350958        -9.5500 
 138   2.0000      -0.344819        -9.3830 
 139   2.0000      -0.340992        -9.2789 
 140   2.0000      -0.339834        -9.2474 
 141   2.0000      -0.336728        -9.1628 
 142   2.0000      -0.322101        -8.7648 
 143   2.0000      -0.305621        -8.3164 
 144   2.0000      -0.286148        -7.7865 
 145   2.0000      -0.257673        -7.0116 
 146   0.0000      -0.042840        -1.1657 
 147   0.0000       0.001029         0.0280 
 148   0.0000       0.011834         0.3220 
 149   0.0000       0.029817         0.8114 
 150   0.0000       0.042663         1.1609 
 151   0.0000       0.062828         1.7096 
 152   0.0000       0.069418         1.8890 
 153   0.0000       0.074687         2.0323 
 154   0.0000       0.091768         2.4971 
 155   0.0000       0.096059         2.6139 
 156   0.0000       0.100413         2.7324 
 157   0.0000       0.108500         2.9524 
 158   0.0000       0.112022         3.0483 
 159   0.0000       0.121765         3.3134 
 160   0.0000       0.122067         3.3216 
 161   0.0000       0.125768         3.4223 
 162   0.0000       0.127543         3.4706 
 163   0.0000       0.132204         3.5975 
 164   0.0000       0.136523         3.7150 
 165   0.0000       0.141764         3.8576 
 166   0.0000       0.145589         3.9617 
 167   0.0000       0.149336         4.0636 
 168   0.0000       0.152781         4.1574 
 169   0.0000       0.154738         4.2106 
 170   0.0000       0.156516         4.2590 
 171   0.0000       0.157161         4.2766 
 172   0.0000       0.163502         4.4491 
 173   0.0000       0.166078         4.5192 
 174   0.0000       0.168261         4.5786 
 175   0.0000       0.169213         4.6045 
 176   0.0000       0.172986         4.7072 
 177   0.0000       0.178470         4.8564 
 178   0.0000       0.180780         4.9193 
 179   0.0000       0.182058         4.9541 
 180   0.0000       0.185077         5.0362 
 181   0.0000       0.187773         5.1096 
 182   0.0000       0.191018         5.1979 
 183   0.0000       0.192169         5.2292 
 184   0.0000       0.197858         5.3840 
 185   0.0000       0.200546         5.4571 
 186   0.0000       0.202991         5.5237 
 187   0.0000       0.207338         5.6420 
 188   0.0000       0.209160         5.6915 
 189   0.0000       0.214825         5.8457 
 190   0.0000       0.218045         5.9333 
 191   0.0000       0.221419         6.0251 
 192   0.0000       0.221711         6.0331 
 193   0.0000       0.228250         6.2110 
 194   0.0000       0.236326         6.4308 
 195   0.0000       0.243440         6.6243 
 196   0.0000       0.245997         6.6939 
 197   0.0000       0.253626         6.9015 
 198   0.0000       0.254965         6.9380 
 199   0.0000       0.256777         6.9873 
 200   0.0000       0.259506         7.0615 
 201   0.0000       0.261736         7.1222 
 202   0.0000       0.265054         7.2125 
 203   0.0000       0.265879         7.2349 
 204   0.0000       0.268710         7.3120 
 205   0.0000       0.271163         7.3787 
 206   0.0000       0.272811         7.4236 
 207   0.0000       0.274059         7.4575 
 208   0.0000       0.277806         7.5595 
 209   0.0000       0.281839         7.6692 
 210   0.0000       0.283860         7.7242 
 211   0.0000       0.288037         7.8379 
 212   0.0000       0.289141         7.8679 
 213   0.0000       0.290300         7.8995 
 214   0.0000       0.295429         8.0390 
 215   0.0000       0.296773         8.0756 
 216   0.0000       0.301097         8.1933 
 217   0.0000       0.303015         8.2455 
 218   0.0000       0.304706         8.2915 
 219   0.0000       0.309624         8.4253 
 220   0.0000       0.314639         8.5618 
 221   0.0000       0.317398         8.6368 
 222   0.0000       0.320876         8.7315 
 223   0.0000       0.321105         8.7377 
 224   0.0000       0.322217         8.7680 
 225   0.0000       0.325500         8.8573 
 226   0.0000       0.326971         8.8973 
 227   0.0000       0.327816         8.9203 
 228   0.0000       0.332524         9.0484 
 229   0.0000       0.335345         9.1252 
 230   0.0000       0.335941         9.1414 
 231   0.0000       0.339902         9.2492 
 232   0.0000       0.343555         9.3486 
 233   0.0000       0.345515         9.4019 
 234   0.0000       0.346399         9.4260 
 235   0.0000       0.352456         9.5908 
 236   0.0000       0.354159         9.6372 
 237   0.0000       0.355587         9.6760 
 238   0.0000       0.359880         9.7928 
 239   0.0000       0.362803         9.8724 
 240   0.0000       0.364519         9.9191 
 241   0.0000       0.367446         9.9987 
 242   0.0000       0.368326        10.0227 
 243   0.0000       0.370852        10.0914 
 244   0.0000       0.375802        10.2261 
 245   0.0000       0.376565        10.2469 
 246   0.0000       0.379153        10.3173 
 247   0.0000       0.382599        10.4111 
 248   0.0000       0.384401        10.4601 
 249   0.0000       0.387151        10.5349 
 250   0.0000       0.388227        10.5642 
 251   0.0000       0.393920        10.7191 
 252   0.0000       0.397283        10.8106 
 253   0.0000       0.399472        10.8702 
 254   0.0000       0.403168        10.9708 
 255   0.0000       0.407013        11.0754 
 256   0.0000       0.407846        11.0981 
 257   0.0000       0.413541        11.2530 
 258   0.0000       0.413959        11.2644 
 259   0.0000       0.417182        11.3521 
 260   0.0000       0.419245        11.4082 
 261   0.0000       0.420721        11.4484 
 262   0.0000       0.424528        11.5520 
 263   0.0000       0.425834        11.5875 
 264   0.0000       0.427907        11.6439 
 265   0.0000       0.429294        11.6817 
 266   0.0000       0.430313        11.7094 
 267   0.0000       0.434938        11.8353 
 268   0.0000       0.438541        11.9333 
 269   0.0000       0.440441        11.9850 
 270   0.0000       0.442153        12.0316 
 271   0.0000       0.444784        12.1032 
 272   0.0000       0.448197        12.1961 
 273   0.0000       0.451426        12.2839 
 274   0.0000       0.452039        12.3006 
 275   0.0000       0.455548        12.3961 
 276   0.0000       0.458559        12.4780 
 277   0.0000       0.461051        12.5458 
 278   0.0000       0.461603        12.5609 
 279   0.0000       0.465347        12.6627 
 280   0.0000       0.467903        12.7323 
 281   0.0000       0.469043        12.7633 
 282   0.0000       0.470298        12.7974 
 283   0.0000       0.473909        12.8957 
 284   0.0000       0.477784        13.0012 
 285   0.0000       0.479873        13.0580 
 286   0.0000       0.483329        13.1521 
 287   0.0000       0.486452        13.2370 
 288   0.0000       0.488048        13.2805 
 289   0.0000       0.490130        13.3371 
 290   0.0000       0.493407        13.4263 
 291   0.0000       0.495043        13.4708 
 292   0.0000       0.497897        13.5485 
 293   0.0000       0.499186        13.5835 
 294   0.0000       0.502097        13.6628 
 295   0.0000       0.503100        13.6901 
 296   0.0000       0.507409        13.8073 
 297   0.0000       0.509270        13.8579 
 298   0.0000       0.512892        13.9565 
 299   0.0000       0.513413        13.9707 
 300   0.0000       0.515867        14.0375 
 301   0.0000       0.519186        14.1278 
 302   0.0000       0.521470        14.1899 
 303   0.0000       0.523573        14.2472 
 304   0.0000       0.526747        14.3335 
 305   0.0000       0.527738        14.3605 
 306   0.0000       0.529892        14.4191 
 307   0.0000       0.531226        14.4554 
 308   0.0000       0.536757        14.6059 
 309   0.0000       0.538321        14.6485 
 310   0.0000       0.543200        14.7812 
 311   0.0000       0.545193        14.8355 
 312   0.0000       0.546890        14.8816 
 313   0.0000       0.552268        15.0280 
 314   0.0000       0.555900        15.1268 
 315   0.0000       0.556610        15.1461 
 316   0.0000       0.557958        15.1828 
 317   0.0000       0.559591        15.2273 
 318   0.0000       0.562167        15.2974 
 319   0.0000       0.568803        15.4779 
 320   0.0000       0.572162        15.5693 
 321   0.0000       0.575793        15.6681 
 322   0.0000       0.575927        15.6718 
 323   0.0000       0.581514        15.8238 
 324   0.0000       0.585606        15.9351 
 325   0.0000       0.587205        15.9787 
 326   0.0000       0.588669        16.0185 
 327   0.0000       0.594013        16.1639 
 328   0.0000       0.597840        16.2680 
 329   0.0000       0.598780        16.2936 
 330   0.0000       0.604415        16.4470 
 331   0.0000       0.606306        16.4984 
 332   0.0000       0.612016        16.6538 
 333   0.0000       0.613358        16.6903 
 334   0.0000       0.618519        16.8308 
 335   0.0000       0.621898        16.9227 
 336   0.0000       0.625389        17.0177 
 337   0.0000       0.628104        17.0916 
 338   0.0000       0.631090        17.1728 
 339   0.0000       0.632178        17.2024 
 340   0.0000       0.639524        17.4023 
 341   0.0000       0.640513        17.4292 
 342   0.0000       0.649146        17.6642 
 343   0.0000       0.652458        17.7543 
 344   0.0000       0.654323        17.8050 
 345   0.0000       0.662435        18.0258 
 346   0.0000       0.667094        18.1525 
 347   0.0000       0.670966        18.2579 
 348   0.0000       0.673455        18.3257 
 349   0.0000       0.674211        18.3462 
 350   0.0000       0.677592        18.4382 
 351   0.0000       0.680215        18.5096 
 352   0.0000       0.684614        18.6293 
 353   0.0000       0.691703        18.8222 
 354   0.0000       0.697395        18.9771 
 355   0.0000       0.699030        19.0216 
 356   0.0000       0.701751        19.0956 
 357   0.0000       0.705004        19.1841 
 358   0.0000       0.708651        19.2834 
 359   0.0000       0.714871        19.4526 
 360   0.0000       0.716290        19.4912 
 361   0.0000       0.717354        19.5202 
 362   0.0000       0.719370        19.5750 
 363   0.0000       0.720785        19.6136 
 364   0.0000       0.727771        19.8037 
 365   0.0000       0.728808        19.8319 
 366   0.0000       0.732418        19.9301 
 367   0.0000       0.736079        20.0297 
 368   0.0000       0.737426        20.0664 
 369   0.0000       0.738866        20.1056 
 370   0.0000       0.742700        20.2099 
 371   0.0000       0.742886        20.2150 
 372   0.0000       0.743821        20.2404 
 373   0.0000       0.749085        20.3836 
 374   0.0000       0.753321        20.4989 
 375   0.0000       0.758625        20.6432 
 376   0.0000       0.760226        20.6868 
 377   0.0000       0.761663        20.7259 
 378   0.0000       0.764422        20.8010 
 379   0.0000       0.767347        20.8806 
 380   0.0000       0.768332        20.9074 
 381   0.0000       0.774328        21.0705 
 382   0.0000       0.777211        21.1490 
 383   0.0000       0.779078        21.1998 
 384   0.0000       0.784746        21.3540 
 385   0.0000       0.789785        21.4911 
 386   0.0000       0.792678        21.5699 
 387   0.0000       0.794339        21.6151 
 388   0.0000       0.798763        21.7355 
 389   0.0000       0.800397        21.7799 
 390   0.0000       0.804337        21.8871 
 391   0.0000       0.807776        21.9807 
 392   0.0000       0.813868        22.1465 
 393   0.0000       0.815875        22.2011 
 394   0.0000       0.818469        22.2717 
 395   0.0000       0.824473        22.4350 
 396   0.0000       0.830187        22.5905 
 397   0.0000       0.834079        22.6964 
 398   0.0000       0.836324        22.7575 
 399   0.0000       0.837870        22.7996 
 400   0.0000       0.841234        22.8911 
 401   0.0000       0.845070        22.9955 
 402   0.0000       0.847568        23.0635 
 403   0.0000       0.849924        23.1276 
 404   0.0000       0.856405        23.3040 
 405   0.0000       0.864981        23.5373 
 406   0.0000       0.866545        23.5799 
 407   0.0000       0.868346        23.6289 
 408   0.0000       0.869103        23.6495 
 409   0.0000       0.874118        23.7860 
 410   0.0000       0.882276        24.0079 
 411   0.0000       0.885210        24.0878 
 412   0.0000       0.890125        24.2215 
 413   0.0000       0.891889        24.2695 
 414   0.0000       0.895795        24.3758 
 415   0.0000       0.898800        24.4576 
 416   0.0000       0.902183        24.5497 
 417   0.0000       0.904175        24.6038 
 418   0.0000       0.906155        24.6577 
 419   0.0000       0.912365        24.8267 
 420   0.0000       0.913784        24.8653 
 421   0.0000       0.917989        24.9798 
 422   0.0000       0.920795        25.0561 
 423   0.0000       0.933396        25.3990 
 424   0.0000       0.934287        25.4232 
 425   0.0000       0.940128        25.5822 
 426   0.0000       0.941934        25.6313 
 427   0.0000       0.946108        25.7449 
 428   0.0000       0.955666        26.0050 
 429   0.0000       0.956452        26.0264 
 430   0.0000       0.958701        26.0876 
 431   0.0000       0.961609        26.1667 
 432   0.0000       0.967929        26.3387 
 433   0.0000       0.970368        26.4051 
 434   0.0000       0.973038        26.4777 
 435   0.0000       0.975069        26.5330 
 436   0.0000       0.978972        26.6392 
 437   0.0000       0.983492        26.7622 
 438   0.0000       0.987952        26.8835 
 439   0.0000       0.989361        26.9219 
 440   0.0000       0.996699        27.1216 
 441   0.0000       1.000714        27.2308 
 442   0.0000       1.002626        27.2828 
 443   0.0000       1.007052        27.4033 
 444   0.0000       1.011166        27.5152 
 445   0.0000       1.014652        27.6101 
 446   0.0000       1.019014        27.7288 
 447   0.0000       1.021953        27.8087 
 448   0.0000       1.025513        27.9056 
 449   0.0000       1.030182        28.0327 
 450   0.0000       1.033936        28.1348 
 451   0.0000       1.043076        28.3836 
 452   0.0000       1.047811        28.5124 
 453   0.0000       1.057639        28.7798 
 454   0.0000       1.059133        28.8205 
 455   0.0000       1.061162        28.8757 
 456   0.0000       1.067553        29.0496 
 457   0.0000       1.069362        29.0988 
 458   0.0000       1.073690        29.2166 
 459   0.0000       1.076384        29.2899 
 460   0.0000       1.081202        29.4210 
 461   0.0000       1.086101        29.5543 
 462   0.0000       1.089739        29.6533 
 463   0.0000       1.091483        29.7008 
 464   0.0000       1.100492        29.9459 
 465   0.0000       1.103071        30.0161 
 466   0.0000       1.105238        30.0750 
 467   0.0000       1.113642        30.3037 
 468   0.0000       1.115676        30.3591 
 469   0.0000       1.117192        30.4003 
 470   0.0000       1.129459        30.7341 
 471   0.0000       1.132403        30.8142 
 472   0.0000       1.133273        30.8379 
 473   0.0000       1.134251        30.8645 
 474   0.0000       1.145466        31.1697 
 475   0.0000       1.154351        31.4115 
 476   0.0000       1.155123        31.4325 
 477   0.0000       1.167779        31.7769 
 478   0.0000       1.173462        31.9315 
 479   0.0000       1.177568        32.0432 
 480   0.0000       1.182243        32.1705 
 481   0.0000       1.185225        32.2516 
 482   0.0000       1.191247        32.4155 
 483   0.0000       1.195958        32.5437 
 484   0.0000       1.199876        32.6503 
 485   0.0000       1.204896        32.7869 
 486   0.0000       1.206275        32.8244 
 487   0.0000       1.209823        32.9210 
 488   0.0000       1.217925        33.1414 
 489   0.0000       1.219137        33.1744 
 490   0.0000       1.222971        33.2787 
 491   0.0000       1.228450        33.4278 
 492   0.0000       1.232975        33.5510 
 493   0.0000       1.237058        33.6621 
 494   0.0000       1.240586        33.7581 
 495   0.0000       1.245932        33.9035 
 496   0.0000       1.250185        34.0193 
 497   0.0000       1.256464        34.1901 
 498   0.0000       1.258168        34.2365 
 499   0.0000       1.264490        34.4085 
 500   0.0000       1.271816        34.6079 
 501   0.0000       1.280996        34.8577 
 502   0.0000       1.281933        34.8832 
 503   0.0000       1.288228        35.0545 
 504   0.0000       1.289213        35.0813 
 505   0.0000       1.293441        35.1963 
 506   0.0000       1.296212        35.2717 
 507   0.0000       1.297842        35.3161 
 508   0.0000       1.308210        35.5982 
 509   0.0000       1.313248        35.7353 
 510   0.0000       1.315442        35.7950 
 511   0.0000       1.320108        35.9220 
 512   0.0000       1.323085        36.0030 
 513   0.0000       1.331499        36.2319 
 514   0.0000       1.337049        36.3830 
 515   0.0000       1.341963        36.5167 
 516   0.0000       1.346471        36.6393 
 517   0.0000       1.354750        36.8646 
 518   0.0000       1.357975        36.9524 
 519   0.0000       1.361223        37.0408 
 520   0.0000       1.367938        37.2235 
 521   0.0000       1.372370        37.3441 
 522   0.0000       1.378535        37.5119 
 523   0.0000       1.381800        37.6007 
 524   0.0000       1.392289        37.8861 
 525   0.0000       1.395455        37.9723 
 526   0.0000       1.415172        38.5088 
 527   0.0000       1.419015        38.6134 
 528   0.0000       1.420842        38.6631 
 529   0.0000       1.427153        38.8348 
 530   0.0000       1.429006        38.8852 
 531   0.0000       1.433392        39.0046 
 532   0.0000       1.438517        39.1440 
 533   0.0000       1.440872        39.2081 
 534   0.0000       1.448149        39.4061 
 535   0.0000       1.449253        39.4362 
 536   0.0000       1.454035        39.5663 
 537   0.0000       1.462237        39.7895 
 538   0.0000       1.462867        39.8066 
 539   0.0000       1.467370        39.9292 
 540   0.0000       1.472698        40.0741 
 541   0.0000       1.475426        40.1484 
 542   0.0000       1.479836        40.2684 
 543   0.0000       1.484542        40.3964 
 544   0.0000       1.489988        40.5446 
 545   0.0000       1.492641        40.6168 
 546   0.0000       1.494830        40.6764 
 547   0.0000       1.498879        40.7866 
 548   0.0000       1.506101        40.9831 
 549   0.0000       1.506779        41.0015 
 550   0.0000       1.513553        41.1859 
 551   0.0000       1.520514        41.3753 
 552   0.0000       1.525566        41.5128 
 553   0.0000       1.526439        41.5365 
 554   0.0000       1.533130        41.7186 
 555   0.0000       1.536639        41.8141 
 556   0.0000       1.539930        41.9036 
 557   0.0000       1.546463        42.0814 
 558   0.0000       1.551487        42.2181 
 559   0.0000       1.556108        42.3438 
 560   0.0000       1.559231        42.4288 
 561   0.0000       1.561895        42.5013 
 562   0.0000       1.567692        42.6591 
 563   0.0000       1.570811        42.7440 
 564   0.0000       1.573738        42.8236 
 565   0.0000       1.575202        42.8634 
 566   0.0000       1.578601        42.9559 
 567   0.0000       1.581508        43.0350 
 568   0.0000       1.583637        43.0929 
 569   0.0000       1.590649        43.2838 
 570   0.0000       1.593085        43.3500 
 571   0.0000       1.594019        43.3755 
 572   0.0000       1.604879        43.6710 
 573   0.0000       1.606411        43.7127 
 574   0.0000       1.608867        43.7795 
 575   0.0000       1.611493        43.8509 
 576   0.0000       1.613550        43.9069 
 577   0.0000       1.620614        44.0992 
 578   0.0000       1.621523        44.1239 
 579   0.0000       1.624486        44.2045 
 580   0.0000       1.626330        44.2547 
 581   0.0000       1.631597        44.3980 
 582   0.0000       1.635022        44.4912 
 583   0.0000       1.638607        44.5888 
 584   0.0000       1.640036        44.6276 
 585   0.0000       1.641903        44.6785 
 586   0.0000       1.650345        44.9082 
 587   0.0000       1.653614        44.9971 
 588   0.0000       1.655994        45.0619 
 589   0.0000       1.659905        45.1683 
 590   0.0000       1.664318        45.2884 
 591   0.0000       1.667801        45.3832 
 592   0.0000       1.668672        45.4069 
 593   0.0000       1.673014        45.5250 
 594   0.0000       1.676028        45.6071 
 595   0.0000       1.678866        45.6843 
 596   0.0000       1.682942        45.7952 
 597   0.0000       1.687000        45.9056 
 598   0.0000       1.693159        46.0732 
[...]
 197   8.964     138.3   0.031762   0.026357  99.782758  90.493001     0.07 (  66->  93)    0.03 (  88-> 106)    0.03 (  89-> 135)
 198   8.986     138.0   0.005586   0.004288  -35.168816  -33.361614     0.10 (  89-> 135)    0.07 (  89-> 136)    0.04 (  89-> 137)
 199   8.990     137.9   0.046876   0.042301  -22.440279  -20.122676     0.03 (  73->  94)    0.03 (  81-> 105)    0.02 (  81-> 107)
 200   9.003     137.7   0.036381   0.032044  40.729176  40.299893     0.02 (  74->  94)    0.02 (  89-> 135)    0.02 (  44->  90)
 201   9.025     137.4   0.003434   0.003233   1.305868   0.920053     0.04 (  86->  94)    0.02 (  79->  92)    0.02 (  79->  94)
 202   9.027     137.3   0.015051   0.012308  18.088854  16.644406     0.05 (  53->  91)    0.04 (  53->  90)    0.03 (  62->  92)
 203   9.042     137.1   0.012317   0.011307  36.706756  35.565033     0.04 (  76->  91)    0.04 (  76->  92)    0.03 (  47->  90)
 204   9.050     137.0   0.004702   0.003685   1.051712   0.239154     0.03 (  76->  91)    0.03 (  89-> 137)    0.02 (  76->  92)
 205   9.058     136.9   0.021560   0.017844  -8.516283  -7.630326     0.03 (  88-> 130)    0.02 (  46->  90)    0.02 (  87-> 130)
 206   9.062     136.8   0.005387   0.005089  -4.844066  -4.639169     0.10 (  64->  91)    0.06 (  47->  90)    0.03 (  76->  91)
 207   9.074     136.6   0.024987   0.020797  -46.561216  -42.311379     0.03 (  44->  90)    0.03 (  46->  90)    0.02 (  81-> 104)
 208   9.079     136.6   0.018611   0.016475  -31.871975  -30.256119     0.10 (  82->  98)    0.03 (  82-> 109)    0.03 (  83->  98)
 209   9.083     136.5   0.019836   0.020027   7.204626   3.189271     0.05 (  47->  90)    0.04 (  81-> 104)    0.03 (  44->  90)
 210   9.101     136.2   0.029804   0.027356  54.858122  51.468672     0.02 (  88-> 106)    0.02 (  81-> 108)    0.02 (  64->  91)
 211   9.108     136.1   0.011702   0.009610  -18.738455  -16.822794     0.04 (  89-> 110)    0.04 (  69->  93)    0.03 (  89-> 104)
 212   9.116     136.0   0.011156   0.009575   4.041902   4.417387     0.12 (  46->  90)    0.09 (  77-> 100)    0.06 (  71->  91)
 213   9.124     135.9   0.035143   0.028864  34.287521  32.427799     0.05 (  89-> 107)    0.03 (  87-> 129)    0.02 (  88-> 130)
 214   9.129     135.8   0.016840   0.013971   4.787904   6.094304     0.03 (  83-> 109)    0.03 (  47->  90)    0.03 (  89-> 105)
 215   9.137     135.7   0.003619   0.003481  -8.824670  -8.108131     0.17 (  46->  90)    0.04 (  63->  90)    0.04 (  68->  94)
 216   9.144     135.6   0.022224   0.019533  -0.833943  -2.204101     0.06 (  89-> 107)    0.05 (  46->  90)    0.02 (  81-> 104)
 217   9.152     135.5   0.027270   0.022288  -24.649512  -23.155971     0.06 (  46->  90)    0.04 (  85-> 108)    0.03 (  85->  96)
 218   9.170     135.2   0.005803   0.004643  26.791741  26.253501     0.09 (  84->  98)    0.04 (  84-> 114)    0.04 (  89-> 104)
 219   9.178     135.1   0.031967   0.029633  40.435015  39.524591     0.06 (  74->  94)    0.04 (  47->  90)    0.03 (  81-> 108)
 220   9.191     134.9   0.002872   0.002680  11.753023  11.146757     0.04 (  88-> 101)    0.04 (  86->  97)    0.02 (  84-> 108)
 221   9.204     134.7   0.073171   0.063641  -33.389079  -29.796234     0.04 (  89-> 137)    0.03 (  89-> 105)    0.02 (  89-> 104)
 222   9.213     134.6   0.023891   0.020854   4.149431   3.404333     0.04 (  44->  90)    0.02 (  89-> 137)    0.02 (  76->  91)
 223   9.241     134.2   0.038711   0.030526  -16.986439  -16.236563     0.15 (  75->  90)    0.03 (  64->  90)    0.03 (  84->  95)
 224   9.245     134.1   0.066980   0.056735  25.377149  24.490085     0.12 (  75->  96)    0.07 (  75->  95)    0.04 (  88-> 103)
 225   9.249     134.1   0.013343   0.012238  -13.514265  -12.608439     0.07 (  44->  90)    0.06 (  81-> 108)    0.05 (  75->  96)
 226   9.255     134.0   0.103339   0.086853  -30.656960  -30.463655     0.03 (  74->  94)    0.03 (  81-> 104)    0.02 (  46->  90)
 227   9.274     133.7   0.000826   0.000623   6.668044   4.410977     0.04 (  88-> 101)    0.03 (  89-> 108)    0.03 (  44->  90)
 228   9.285     133.5   0.015365   0.011670  16.985777  16.369423     0.07 (  75->  90)    0.03 (  86->  97)    0.03 (  88-> 102)
 229   9.295     133.4   0.006910   0.005300  -11.205691  -10.936973     0.03 (  73->  94)    0.03 (  89-> 110)    0.02 (  81-> 105)
 230   9.317     133.1   0.016547   0.014611   3.011995   4.133726     0.06 (  63->  93)    0.05 (  61->  93)    0.03 (  85->  95)
 231   9.326     132.9   0.018851   0.016793   4.729789   5.726440     0.07 (  75->  90)    0.05 (  81->  99)    0.04 (  63->  93)
 232   9.329     132.9   0.020706   0.016410  13.090405  10.423837     0.22 (  75->  90)    0.02 (  82->  94)    0.02 (  44->  90)
 233   9.335     132.8   0.012700   0.010388  -0.217263  -0.383196     0.06 (  81->  99)    0.05 (  84->  99)    0.02 (  81-> 107)
 234   9.346     132.7   0.008516   0.008408  -2.352327  -1.872855     0.15 (  75->  90)    0.03 (  82->  99)    0.02 (  84->  99)
 235   9.356     132.5   0.022136   0.019249  -4.595592  -4.283141     0.10 (  84->  99)    0.04 (  89-> 137)    0.04 (  86->  97)
 236   9.359     132.5   0.023640   0.020067  -25.705347  -23.684353     0.16 (  84->  99)    0.07 (  84->  98)    0.03 (  84-> 100)
 237   9.367     132.4   0.015669   0.013328  -26.846733  -24.127493     0.09 (  75->  95)    0.05 (  65->  91)    0.03 (  75->  91)
 238   9.377     132.2   0.059089   0.049001  -38.645880  -35.676345     0.05 (  89-> 137)    0.04 (  85->  95)    0.04 (  72->  96)
 239   9.392     132.0   0.016121   0.014272  -31.620456  -30.958515     0.04 (  46->  90)    0.03 (  70->  94)    0.03 (  69->  94)
 240   9.398     131.9   0.013768   0.011882  13.510296  12.296947     0.03 (  82->  94)    0.03 (  78->  96)    0.03 (  86->  99)
 241   9.407     131.8   0.019832   0.015926  28.351943  25.566516     0.06 (  89-> 108)    0.04 (  89-> 139)    0.04 (  89-> 105)
 242   9.414     131.7   0.011740   0.011957  -29.218385  -26.008966     0.03 (  51->  91)    0.02 (  69->  94)    0.02 (  57->  92)
 243   9.423     131.6   0.015370   0.012788  -19.723119  -17.782131     0.11 (  72->  90)    0.04 (  66->  97)    0.04 (  70->  90)
 244   9.437     131.4   0.056389   0.048366  -2.632784  -1.972728     0.06 (  75->  96)    0.04 (  89-> 108)    0.04 (  83->  99)
 245   9.453     131.2   0.012919   0.011554  -3.666369  -3.280998     0.10 (  72->  90)    0.06 (  66->  97)    0.04 (  63->  97)
 246   9.459     131.1   0.192509   0.162316  25.128341  24.451235     0.05 (  69->  94)    0.04 (  72->  90)    0.03 (  61->  93)
 247   9.468     130.9   0.040397   0.035721  22.073719  20.333551     0.21 (  84->  98)    0.20 (  84->  96)    0.04 (  84-> 119)
 248   9.471     130.9   0.021070   0.018148  -9.995523  -9.576803     0.09 (  72->  90)    0.03 (  81->  99)    0.03 (  70->  90)
 249   9.480     130.8   0.017091   0.015348  35.662398  33.447661     0.05 (  89-> 107)    0.03 (  89-> 139)    0.03 (  82->  99)
 250   9.486     130.7   0.022757   0.017869   5.327803   3.844855     0.05 (  88-> 105)    0.05 (  88-> 106)    0.05 (  88-> 107)
 251   9.495     130.6   0.039388   0.033832  28.102778  24.852759     0.04 (  77->  92)    0.04 (  46->  90)    0.03 (  68->  94)
 252   9.507     130.4   0.073772   0.062201  28.203825  25.680255     0.04 (  71->  96)    0.03 (  89-> 139)    0.03 (  89-> 140)
 253   9.508     130.4   0.136871   0.116423  -92.051766  -81.365083     0.04 (  89-> 139)    0.02 (  81-> 107)    0.02 (  77->  92)
 254   9.518     130.3   0.004832   0.004281  -11.078173  -9.726287     0.04 (  89-> 139)    0.03 (  89-> 145)    0.02 (  74->  99)
 255   9.525     130.2   0.082889   0.072993  -46.428508  -43.785339     0.04 (  61->  93)    0.03 (  80->  95)    0.03 (  50->  91)
 256   9.545     129.9   0.056019   0.045014  -14.039602  -12.841454     0.03 (  44->  90)    0.02 (  88-> 129)    0.02 (  73->  97)
 257   9.549     129.8   0.027263   0.023477  -50.535749  -44.957769     0.06 (  81->  99)    0.03 (  81-> 107)    0.02 (  81->  96)
 258   9.551     129.8   0.137978   0.118745  87.573514  81.491214     0.04 (  80->  95)    0.03 (  82->  99)    0.03 (  89-> 139)
 259   9.560     129.7   0.017063   0.015639  16.667620  19.864644     0.05 (  75-> 100)    0.03 (  89-> 108)    0.02 (  88-> 107)
 260   9.567     129.6   0.019302   0.016749   3.086119   1.774198     0.05 (  73->  97)    0.04 (  44->  90)    0.03 (  61->  93)
 261   9.574     129.5   0.003407   0.002555   5.054277   4.204747     0.04 (  77->  92)    0.03 (  77->  91)    0.02 (  86->  98)
 262   9.580     129.4   0.036462   0.032173  34.345436  33.917468     0.07 (  72->  95)    0.05 (  56->  91)    0.02 (  48->  91)
 263   9.584     129.4   0.110513   0.100708  -87.639588  -82.686261     0.02 (  75->  96)    0.02 (  86->  99)    0.02 (  74->  98)
 264   9.592     129.3   0.058971   0.050808  -94.366159  -87.557773     0.03 (  82->  99)    0.02 (  71->  96)    0.02 (  89-> 110)
 265   9.606     129.1   0.020155   0.018899  -17.798061  -17.411650     0.03 (  81->  96)    0.03 (  81->  98)    0.02 (  80->  97)
 266   9.606     129.1   0.038279   0.031262  -12.915265  -11.369547     0.04 (  86->  98)    0.03 (  82-> 109)    0.01 (  82-> 124)
 267   9.620     128.9   0.073424   0.064557  156.426680  147.544776     0.04 (  84-> 114)    0.04 (  84-> 121)    0.03 (  84-> 113)
 268   9.631     128.7   0.012766   0.011120  11.203415  10.689271     0.02 (  89-> 108)    0.02 (  54->  91)    0.02 (  83-> 116)
 269   9.633     128.7   0.072666   0.060610  -32.094659  -28.095252     0.04 (  53->  92)    0.04 (  66->  94)    0.02 (  59->  94)
 270   9.634     128.7   0.031354   0.025936  60.675078  55.467867     0.03 (  56->  91)    0.03 (  59->  93)    0.03 (  72->  92)
 271   9.642     128.6   0.021128   0.018405  -17.129973  -18.178843     0.03 (  89-> 138)    0.02 (  77-> 101)    0.02 (  89-> 145)
 272   9.650     128.5   0.129785   0.115487  32.697812  30.382112     0.03 (  77-> 101)    0.03 (  53->  92)    0.02 (  48->  91)
 273   9.662     128.3   0.015171   0.014003  -0.834840  -1.804439     0.04 (  53->  92)    0.03 (  48->  91)    0.03 (  59->  93)
 274   9.673     128.2   0.095007   0.082986  35.394975  32.397451     0.06 (  87-> 100)    0.06 (  86->  97)    0.04 (  80->  97)
 275   9.689     128.0   0.020807   0.016739  -8.645016  -6.512856     0.05 (  77-> 101)    0.03 (  59->  93)    0.02 (  72->  95)
 276   9.694     127.9   0.010835   0.008997  -39.348076  -35.886562     0.05 (  59->  93)    0.04 (  72->  96)    0.04 (  77-> 101)
 277   9.702     127.8   0.008269   0.006903  -15.464620  -12.045291     0.10 (  59->  93)    0.09 (  58->  93)    0.05 (  57->  93)
 278   9.703     127.8   0.034587   0.029826  17.251211  17.561991     0.04 (  59->  93)    0.04 (  68->  94)    0.03 (  77-> 101)
 279   9.717     127.6   0.010396   0.009102  -2.241695  -1.998878     0.04 (  80->  96)    0.02 (  79->  98)    0.02 (  73->  91)
 280   9.730     127.4   0.007534   0.006046  -5.229304  -4.762794     0.04 (  77-> 101)    0.02 (  87-> 100)    0.02 (  68->  94)
 281   9.741     127.3   0.017502   0.015086  15.033997  13.343320     0.09 (  87-> 101)    0.08 (  87-> 100)    0.02 (  89-> 138)
 282   9.750     127.2   0.000200   0.000177  -0.508789  -0.501986     0.04 (  86->  97)    0.03 (  85->  98)    0.03 (  68->  94)
 283   9.763     127.0   0.002237   0.002195  -7.919951  -7.734305     0.11 (  73->  91)    0.04 (  74->  94)    0.03 (  73->  92)
 284   9.769     126.9   0.002107   0.001544   6.797236   6.324119     0.06 (  86->  98)    0.02 (  85->  98)    0.02 (  80->  97)
 285   9.776     126.8   0.012307   0.009809   2.918552   2.648697     0.07 (  76->  91)    0.03 (  76->  92)    0.02 (  56->  91)
 286   9.782     126.7   0.008276   0.008024  -15.511198  -14.768171     0.30 (  84->  95)    0.08 (  84-> 110)    0.06 (  84->  97)
 287   9.785     126.7   0.032846   0.027260  11.607591  10.340680     0.03 (  89-> 113)    0.03 (  76->  91)    0.02 (  88-> 119)
 288   9.790     126.6   0.007724   0.007003  12.982092  12.607527     0.09 (  87-> 100)    0.02 (  87-> 102)    0.02 (  62->  90)
 289   9.796     126.6   0.015464   0.013231  -8.284146  -7.735746     0.03 (  89-> 138)    0.02 (  87-> 100)    0.02 (  89-> 145)
 290   9.805     126.5   0.003601   0.002837   2.939933   2.759839     0.07 (  87-> 101)    0.03 (  84->  95)    0.02 (  87-> 100)
 291   9.815     126.3   0.023220   0.018926  41.390703  38.211869     0.04 (  89-> 138)    0.03 (  89-> 140)    0.02 (  89-> 113)
 292   9.824     126.2   0.001077   0.000799  -3.254033  -3.907944     0.04 (  88-> 134)    0.04 (  87-> 101)    0.03 (  86->  99)
 293   9.840     126.0   0.032863   0.026505   7.909559   7.054253     0.03 (  72->  96)    0.03 (  71->  95)    0.02 (  77-> 101)
 294   9.853     125.8   0.060856   0.053233  -55.438047  -57.015968     0.11 (  76-> 102)    0.05 (  79-> 102)    0.02 (  80-> 102)
 295   9.862     125.7   0.022315   0.019335  39.477847  36.013152     0.05 (  89-> 145)    0.03 (  82-> 118)    0.02 (  82-> 116)
 296   9.871     125.6   0.006667   0.005830  -7.728567  -7.997591     0.04 (  86->  99)    0.03 (  87-> 101)    0.03 (  87-> 130)
 297   9.871     125.6   0.007880   0.006318   3.715826   1.818047     0.05 (  76-> 102)    0.04 (  81->  95)    0.02 (  82-> 118)
 298   9.880     125.5   0.016802   0.013733  -2.977385  -3.677962     0.04 (  76-> 102)    0.02 (  87-> 101)    0.02 (  86->  99)
 299   9.884     125.4   0.001853   0.001184   2.392029   1.731510     0.03 (  76-> 102)    0.02 (  55->  91)    0.02 (  57->  91)
 300   9.895     125.3   0.014748   0.013586  -10.763644  -10.278335     0.05 (  84-> 124)    0.03 (  84-> 119)    0.03 (  84->  96)
 301   9.906     125.2   0.004845   0.004163  -23.094879  -20.691862     0.04 (  82-> 116)    0.03 (  85->  99)    0.02 (  82-> 118)
 302   9.910     125.1   0.015980   0.014173  -20.068446  -18.985886     0.07 (  82-> 116)    0.02 (  89-> 145)    0.02 (  85-> 104)
 303   9.916     125.0   0.051716   0.045002  -49.159863  -46.111353     0.08 (  82-> 116)    0.04 (  83-> 116)    0.03 (  89-> 145)
 304   9.918     125.0   0.012219   0.008861  -5.439316  -4.708956     0.03 (  87-> 107)    0.02 (  85->  99)    0.02 (  81->  95)
 305   9.928     124.9   0.017026   0.013484   9.090387   9.448090     0.07 (  89-> 114)    0.04 (  84-> 124)    0.04 (  84->  96)
 306   9.939     124.7   0.013259   0.012576  50.629379  49.351594     0.04 (  69->  91)    0.03 (  81->  95)    0.02 (  79->  95)
 307   9.946     124.7   0.043169   0.036054  48.424959  44.291987     0.08 (  81->  95)    0.05 (  81-> 110)    0.03 (  84->  96)
 308   9.957     124.5   0.019718   0.018207  18.746019  18.527521     0.06 (  83->  97)    0.03 (  89-> 111)    0.02 (  82-> 118)
 309   9.963     124.4   0.019334   0.016361  -23.085589  -21.952273     0.03 (  83-> 118)    0.02 (  75-> 100)    0.02 (  89-> 114)
 310   9.971     124.3   0.002428   0.001976   1.727182   1.801952     0.58 (  71->  90)    0.16 (  70->  90)    0.04 (  69->  90)
 311   9.976     124.3   0.008451   0.007166  -5.495647  -7.439391     0.03 (  89-> 138)    0.03 (  89-> 145)    0.02 (  56->  91)
 312   9.977     124.3   0.004389   0.004125  14.269713  13.742720     0.08 (  82->  97)    0.02 (  87-> 134)    0.02 (  83->  97)
 313   9.983     124.2   0.026998   0.022659  28.933882  24.901076     0.15 (  82->  97)    0.03 (  82->  95)    0.02 (  82->  96)
 314   9.992     124.1   0.003906   0.002952  -2.917146  -2.618765     0.08 (  82->  97)    0.05 (  84->  96)    0.02 (  82-> 116)
 315   9.992     124.1   0.002887   0.002829   7.026697   7.224980     0.03 (  71->  90)    0.02 (  79->  99)    0.02 (  80->  97)

sTD-DFT done

Total run time:       76.378 sec

           *** ORCA-CIS/TD-DFT FINISHED WITHOUT ERROR ***


-------------------------------------------------------------------------------
                          DFT DISPERSION CORRECTION                            
                                                                               
                              DFTD3 V3.1  Rev 1                                
                              USING zero damping                               
-------------------------------------------------------------------------------
The omegaB97X-D3 functional is recognized. Fit by Chai et al.
Active option DFTDOPT                   ...         3   

molecular C6(AA) [au] = 59249.279213 


            DFT-D V3
 parameters
 s6 scaling factor         :     1.0000 
 rs6 scaling factor        :     1.2810 
 s8 scaling factor         :     1.0000 
 rs8 scaling factor        :     1.0940 
 Damping factor alpha6     :    14.0000 
 Damping factor alpha8     :    16.0000 
 ad hoc parameters k1-k3   :    16.0000     1.3333    -4.0000 

 Edisp/kcal,au: -18.404671077390  -0.029329707160 
 E6   /kcal   :  -8.611919141 
 E8   /kcal   :  -9.792751936 
 % E8         :  53.207970383 

-------------------------   ----------------
Dispersion correction           -0.029329707
-------------------------   ----------------


-------------------------   --------------------
FINAL SINGLE POINT ENERGY     -2970.948247308495
-------------------------   --------------------


                            ***************************************
                            *     ORCA property calculations      *
                            ***************************************

                                    ---------------------
                                    Active property flags
                                    ---------------------
   (+) Dipole Moment
   (+) Quadrupole Moment


------------------------------------------------------------------------------
                       ORCA ELECTRIC PROPERTIES CALCULATION
------------------------------------------------------------------------------

Dipole Moment Calculation                       ... on
Quadrupole Moment Calculation                   ... on
Polarizability Calculation                      ... off
GBWName                                         ... total_job2.gbw
Electron density file                           ... total_job2.scfp.tmp

-------------
DIPOLE MOMENT
-------------
                                X             Y             Z
Electronic contribution:      8.09637     -18.07720       7.70786
Nuclear contribution   :     -7.88121      18.73400      -7.93904
                        -----------------------------------------
Total Dipole Moment    :      0.21516       0.65680      -0.23119
                        -----------------------------------------
Magnitude (a.u.)       :      0.72879
Magnitude (Debye)      :      1.85243


------------------------
QUADRUPOLE MOMENT (A.U.)
------------------------

                XX           YY           ZZ           XY           XZ           YZ
  NUC     35357.09456   3999.17979    921.78503  -1018.94780  -1274.28313  -1164.02767
  EL     -35523.93319  -4159.90267  -1107.50769   1014.56748   1273.36695   1154.74655
  TOT      -166.83863   -160.72288   -185.72266     -4.38032     -0.91619     -9.28112

--------------------------------------------------------------------------
[[35266,1],4]: A high-performance Open MPI point-to-point messaging module
was unable to find any relevant network interfaces:

Module: OpenFabrics (openib)
  Host: cx1-105-9-1

Another transport will be used instead, although this may result in
lower performance.
--------------------------------------------------------------------------

Timings for individual modules:

Sum of individual times         ...      300.801 sec (=   5.013 min)
GTO integral calculation        ...        8.217 sec (=   0.137 min)   2.7 %
SCF iterations                  ...      213.411 sec (=   3.557 min)  70.9 %
CIS module                      ...       79.173 sec (=   1.320 min)  26.3 %



                             ****ORCA TERMINATED NORMALLY****
TOTAL RUN TIME: 0 days 0 hours 18 minutes 17 seconds 713 msec
