
                                 *****************
                                 * O   R   C   A *
                                 *****************

           --- An Ab Initio, DFT and Semiempirical electronic structure package ---

                  #######################################################
                  #                        -***-                        #
                  #  Department of molecular theory and spectroscopy    #
                  #              Directorship: Frank Neese              #
                  # Max Planck Institute for Chemical Energy Conversion #
                  #                  D-45470 Muelheim/Ruhr              #
                  #                       Germany                       #
                  #                                                     #
                  #                  All rights reserved                #
                  #                        -***-                        #
                  #######################################################


                         Program Version 4.0.0 -  RELEASE  -


 With contributions from (in alphabetic order):
   Daniel Aravena         : Magnetic Properties
   Michael Atanasov       : Ab Initio Ligand Field Theory
   Ute Becker             : Parallelization
   Martin Brehm           : Molecular dynamics
   Dmytro Bykov           : SCF Hessian
   Vijay G. Chilkuri      : MRCI spin determinant printing
   Dipayan Datta          : RHF DLPNO-CCSD density
   Achintya Kumar Dutta   : EOM-CC, STEOM-CC
   Dmitry Ganyushin       : Spin-Orbit,Spin-Spin,Magnetic field MRCI
   Yang Guo               : DLPNO-NEVPT2, CIM, IAO-localization
   Andreas Hansen         : Spin unrestricted coupled pair/coupled cluster methods
   Lee Huntington         : MR-EOM, pCC
   Robert Izsak           : Overlap fitted RIJCOSX, COSX-SCS-MP3, EOM
   Christian Kollmar      : KDIIS, OOCD, Brueckner-CCSD(T), CCSD density
   Simone Kossmann        : Meta GGA functionals, TD-DFT gradient, OOMP2, MP2 Hessian
   Martin Krupicka        : AUTO-CI
   Dagmar Lenk            : GEPOL surface
   Dimitrios Liakos       : Extrapolation schemes; parallel MDCI
   Dimitrios Manganas     : ROCIS; embedding schemes
   Dimitrios Pantazis     : SARC Basis sets
   Taras Petrenko         : DFT Hessian,TD-DFT gradient, ASA, ECA, R-Raman, ABS, FL, XAS/XES, NRVS
   Peter Pinski           : DLPNO-MP2
   Christoph Reimann      : Effective Core Potentials
   Marius Retegan         : Local ZFS, SOC
   Christoph Riplinger    : Optimizer, TS searches, QM/MM, DLPNO-CCSD(T), (RO)-DLPNO pert. Triples
   Tobias Risthaus        : Range-separated hybrids, TD-DFT gradient, RPA, STAB
   Michael Roemelt        : Restricted open shell CIS
   Masaaki Saitow         : Open-shell DLPNO
   Barbara Sandhoefer     : DKH picture change effects
   Kantharuban Sivalingam : CASSCF convergence, NEVPT2, FIC-MRCI
   Georgi Stoychev        : AutoAux
   Boris Wezisla          : Elementary symmetry handling
   Frank Wennmohs         : Technical directorship


 We gratefully acknowledge several colleagues who have allowed us to
 interface, adapt or use parts of their codes:
   Stefan Grimme, W. Hujo, H. Kruse,             : VdW corrections, initial TS optimization,
                  C. Bannwarth                     DFT functionals, gCP, sTDA/sTD-DF
   Ed Valeev                                     : LibInt (2-el integral package), F12 methods
   Garnet Chan, S. Sharma, J. Yang, R. Olivares  : DMRG
   Ulf Ekstrom                                   : XCFun DFT Library
   Mihaly Kallay                                 : mrcc  (arbitrary order and MRCC methods)
   Jiri Pittner, Ondrej Demel                    : Mk-CCSD
   Frank Weinhold                                : gennbo (NPA and NBO analysis)
   Christopher J. Cramer and Donald G. Truhlar   : smd solvation model


 Your calculation uses the libint2 library for the computation of 2-el integrals
 For citations please refer to: http://libint.valeyev.net

 This ORCA versions uses:
   CBLAS   interface :  Fast vector & matrix operations
   LAPACKE interface :  Fast linear algebra routines
   SCALAPACK package :  Parallel linear algebra routines


Your calculation utilizes the atom-pairwise dispersion correction
with the zero-damping scheme (D30)
Cite in your paper:
S.Grimme, J.Antony, S.Ehrlich and H.Krieg, J.Chem.Phys., 132, (2010), 154104 
   

XCFun DFT library Copyright 2009-2010 Ulf Ekstrom and contributors.
See http://admol.org/xcfun for more information. This is free soft-
ware; see the source code for copying conditions. There is ABSOLUTELY
NO WARRANTY; not even for MERCHANTABILITY or FITNESS FOR A PARTICULAR
PURPOSE. For details see the documentation. Scientific users of this 
library should cite U. Ekstrom, L. Visscher, R. Bast, A. J. Thorvald-
sen and K. Ruud; J.Chem.Theor.Comp. 2010, DOI: 10.1021/ct100117s
XCFun Version 0.99 
Your calculation utilizes the basis: def2-TZVP
   F. Weigend and R. Ahlrichs, Phys. Chem. Chem. Phys. 7, 3297 (2005).

Your calculation utilizes the auxiliary basis: def2/J
   F. Weigend, Phys. Chem. Chem. Phys. 8, 1057 (2006).

================================================================================
                                        WARNINGS
                       Please study these warnings very carefully!
================================================================================

Warning: TCutStore was < 0. Adjusted to Thresh (uncritical)
INFO   : Checking CIS options ...

WARNING: CIS/ROCIS methods need fully converged wavefunctions
  ===> : Setting SCFConvForced true
         You can overwrite this default with %scf ConvForced false 


INFO   : the flag for use of LIBINT has been found!

Your calculation utilizes the atom-pairwise dispersion correction
with the zero-damping scheme (D30)
Cite in your paper:
S.Grimme, J.Antony, S.Ehrlich and H.Krieg, J.Chem.Phys., 132, (2010), 154104 
   

XCFun DFT library Copyright 2009-2010 Ulf Ekstrom and contributors.
See http://admol.org/xcfun for more information. This is free soft-
ware; see the source code for copying conditions. There is ABSOLUTELY
NO WARRANTY; not even for MERCHANTABILITY or FITNESS FOR A PARTICULAR
PURPOSE. For details see the documentation. Scientific users of this 
library should cite U. Ekstrom, L. Visscher, R. Bast, A. J. Thorvald-
sen and K. Ruud; J.Chem.Theor.Comp. 2010, DOI: 10.1021/ct100117s
XCFun Version 0.99 
Your calculation utilizes the basis: def2-TZVP
   F. Weigend and R. Ahlrichs, Phys. Chem. Chem. Phys. 7, 3297 (2005).

Your calculation utilizes the auxiliary basis: def2/J
   F. Weigend, Phys. Chem. Chem. Phys. 8, 1057 (2006).

================================================================================
                                        WARNINGS
                       Please study these warnings very carefully!
================================================================================

INFO   : Checking CIS options ...

INFO   : the flag for use of LIBINT has been found!

================================================================================
                                       INPUT FILE
================================================================================
NAME = total.inp
|  1> # 
|  2> !wB97X-D3 def2-TZVP def2/J RIJCOSX Grid5 FinalGrid6 TightSCF
|  3> %pal 
|  4>  nprocs 24
|  5> end
|  6> %tddft
|  7>   Mode sTDDFT
|  8>   nroots 2
|  9>   Ethresh 10.0
| 10>   maxcore 5000
| 11>   triplets true
| 12> end
| 13> * xyz 0 1 
| 14> C -4.29017033 0.54618119 2.59845148
| 15> C -3.57498049 0.17306097 1.46249196
| 16> C -4.27514029 -0.13376968 0.28153672
| 17> C -5.69800001 -0.09631846 0.30768526
| 18> C -6.42102019 0.28385744 1.44857780
| 19> C -5.69442755 0.61217974 2.59091773
| 20> C -3.89718596 -0.58013161 -1.04983657
| 21> C -5.11629794 -0.82949131 -1.74339668
| 22> N -6.18228630 -0.50801799 -0.92167686
| 23> C -5.15939914 -1.34554574 -3.04768641
| 24> C -3.94104627 -1.62905383 -3.66146621
| 25> C -2.72584120 -1.37306477 -3.01084462
| 26> C -2.66810737 -0.82593854 -1.71529028
| 27> H -1.79553298 -1.57313786 -3.53578738
| 28> H -7.16006856 -0.60689589 -1.16556190
| 29> H -3.92826710 -2.03977271 -4.66730830
| 30> H -2.49174128 0.10796994 1.50673015
| 31> H -7.50744352 0.31055657 1.44335573
| 32> H -6.22037606 0.90943337 3.49425798
| 33> H -3.75377044 0.78564485 3.51259412
| 34> N 3.10047963 0.83717036 0.41423441
| 35> C 1.79600201 1.30366964 0.34270578
| 36> C 1.59393397 2.56735291 0.87841877
| 37> S 3.08973312 3.21207562 1.50194914
| 38> C 3.91010488 1.70794173 0.99123454
| 39> C 0.76128945 0.47597714 -0.26348765
| 40> S -0.93154289 1.01816379 -0.39024304
| 41> C -1.34189783 -0.51508449 -1.15816929
| 42> C -0.19424592 -1.27738736 -1.27557193
| 43> N 0.96027729 -0.73189649 -0.76440305
| 44> H 0.66015770 3.11365957 0.92493851
| 45> H -0.16967249 -2.27396424 -1.71229673
| 46> C 7.75986943 1.78816377 1.87154547
| 47> S 6.30773740 2.73035817 1.98546232
| 48> C 5.32192169 1.51172537 1.21056639
| 49> C 6.11784970 0.39933710 0.87482522
| 50> C 7.50358367 0.56473255 1.25431853
| 51> N 5.67261680 -0.74462638 0.25271098
| 52> C 6.59558367 -1.66692992 0.03206433
| 53> C 7.97496590 -1.50477545 0.40862598
| 54> N 8.44091528 -0.42183714 1.00727489
| 55> H 6.27878986 -2.59349719 -0.46216383
| 56> H 8.68780953 -2.31148173 0.19488926
| 57> H -6.10418051 -1.52672715 -3.55219713
| 58> H 8.70902165 2.15033418 2.24562442
| 59> *
| 60> $new_job
| 61> # 
| 62> !wB97X-D3 def2-TZVP def2/J RIJCOSX Grid5 FinalGrid6 TightSCF
| 63> %pal 
| 64>  nprocs 24
| 65> end
| 66> %elprop
| 67>    dipole     true
| 68>    quadrupole true
| 69> end
| 70> %tddft
| 71>   Mode sTDDFT
| 72>   nroots 2
| 73>   Ethresh 10.0
| 74>   maxcore 5000
| 75> end
| 76> * xyz 0 1 
| 77> C -4.29017033 0.54618119 2.59845148
| 78> C -3.57498049 0.17306097 1.46249196
| 79> C -4.27514029 -0.13376968 0.28153672
| 80> C -5.69800001 -0.09631846 0.30768526
| 81> C -6.42102019 0.28385744 1.44857780
| 82> C -5.69442755 0.61217974 2.59091773
| 83> C -3.89718596 -0.58013161 -1.04983657
| 84> C -5.11629794 -0.82949131 -1.74339668
| 85> N -6.18228630 -0.50801799 -0.92167686
| 86> C -5.15939914 -1.34554574 -3.04768641
| 87> C -3.94104627 -1.62905383 -3.66146621
| 88> C -2.72584120 -1.37306477 -3.01084462
| 89> C -2.66810737 -0.82593854 -1.71529028
| 90> H -1.79553298 -1.57313786 -3.53578738
| 91> H -7.16006856 -0.60689589 -1.16556190
| 92> H -3.92826710 -2.03977271 -4.66730830
| 93> H -2.49174128 0.10796994 1.50673015
| 94> H -7.50744352 0.31055657 1.44335573
| 95> H -6.22037606 0.90943337 3.49425798
| 96> H -3.75377044 0.78564485 3.51259412
| 97> N 3.10047963 0.83717036 0.41423441
| 98> C 1.79600201 1.30366964 0.34270578
| 99> C 1.59393397 2.56735291 0.87841877
|100> S 3.08973312 3.21207562 1.50194914
|101> C 3.91010488 1.70794173 0.99123454
|102> C 0.76128945 0.47597714 -0.26348765
|103> S -0.93154289 1.01816379 -0.39024304
|104> C -1.34189783 -0.51508449 -1.15816929
|105> C -0.19424592 -1.27738736 -1.27557193
|106> N 0.96027729 -0.73189649 -0.76440305
|107> H 0.66015770 3.11365957 0.92493851
|108> H -0.16967249 -2.27396424 -1.71229673
|109> C 7.75986943 1.78816377 1.87154547
|110> S 6.30773740 2.73035817 1.98546232
|111> C 5.32192169 1.51172537 1.21056639
|112> C 6.11784970 0.39933710 0.87482522
|113> C 7.50358367 0.56473255 1.25431853
|114> N 5.67261680 -0.74462638 0.25271098
|115> C 6.59558367 -1.66692992 0.03206433
|116> C 7.97496590 -1.50477545 0.40862598
|117> N 8.44091528 -0.42183714 1.00727489
|118> H 6.27878986 -2.59349719 -0.46216383
|119> H 8.68780953 -2.31148173 0.19488926
|120> H -6.10418051 -1.52672715 -3.55219713
|121> H 8.70902165 2.15033418 2.24562442
|122> *
|123> 
|124>                          ****END OF INPUT****
================================================================================


                 $$$$$$$$$$$$$$$$$$$$$$$$$$$$$$$$$$$$$$$$$$$$$$ 
                 $ THERE ARE  2 JOBS TO BE PROCESSED THIS RUN $
                 $$$$$$$$$$$$$$$$$$$$$$$$$$$$$$$$$$$$$$$$$$$$$$ 




                 $$$$$$$$$$$$$$$$  JOB NUMBER  1 $$$$$$$$$$$$$$


                       ****************************
                       * Single Point Calculation *
                       ****************************

---------------------------------
CARTESIAN COORDINATES (ANGSTROEM)
---------------------------------
  C     -4.290170    0.546181    2.598451
  C     -3.574980    0.173061    1.462492
  C     -4.275140   -0.133770    0.281537
  C     -5.698000   -0.096318    0.307685
  C     -6.421020    0.283857    1.448578
  C     -5.694428    0.612180    2.590918
  C     -3.897186   -0.580132   -1.049837
  C     -5.116298   -0.829491   -1.743397
  N     -6.182286   -0.508018   -0.921677
  C     -5.159399   -1.345546   -3.047686
  C     -3.941046   -1.629054   -3.661466
  C     -2.725841   -1.373065   -3.010845
  C     -2.668107   -0.825939   -1.715290
  H     -1.795533   -1.573138   -3.535787
  H     -7.160069   -0.606896   -1.165562
  H     -3.928267   -2.039773   -4.667308
  H     -2.491741    0.107970    1.506730
  H     -7.507444    0.310557    1.443356
  H     -6.220376    0.909433    3.494258
  H     -3.753770    0.785645    3.512594
  N      3.100480    0.837170    0.414234
  C      1.796002    1.303670    0.342706
  C      1.593934    2.567353    0.878419
  S      3.089733    3.212076    1.501949
  C      3.910105    1.707942    0.991235
  C      0.761289    0.475977   -0.263488
  S     -0.931543    1.018164   -0.390243
  C     -1.341898   -0.515084   -1.158169
  C     -0.194246   -1.277387   -1.275572
  N      0.960277   -0.731896   -0.764403
  H      0.660158    3.113660    0.924939
  H     -0.169672   -2.273964   -1.712297
  C      7.759869    1.788164    1.871545
  S      6.307737    2.730358    1.985462
  C      5.321922    1.511725    1.210566
  C      6.117850    0.399337    0.874825
  C      7.503584    0.564733    1.254319
  N      5.672617   -0.744626    0.252711
  C      6.595584   -1.666930    0.032064
  C      7.974966   -1.504775    0.408626
  N      8.440915   -0.421837    1.007275
  H      6.278790   -2.593497   -0.462164
  H      8.687810   -2.311482    0.194889
  H     -6.104181   -1.526727   -3.552197
  H      8.709022    2.150334    2.245624

----------------------------
CARTESIAN COORDINATES (A.U.)
----------------------------
  NO LB      ZA    FRAG     MASS         X           Y           Z
   0 C     6.0000    0    12.011   -8.107247    1.032133    4.910362
   1 C     6.0000    0    12.011   -6.755734    0.327038    2.763709
   2 C     6.0000    0    12.011   -8.078844   -0.252788    0.532027
   3 C     6.0000    0    12.011  -10.767660   -0.182016    0.581441
   4 C     6.0000    0    12.011  -12.133970    0.536413    2.737415
   5 C     6.0000    0    12.011  -10.760909    1.156852    4.896125
   6 C     6.0000    0    12.011   -7.364614   -1.096290   -1.983904
   7 C     6.0000    0    12.011   -9.668402   -1.567511   -3.294542
   8 N     7.0000    0    14.007  -11.682828   -0.960015   -1.741717
   9 C     6.0000    0    12.011   -9.749851   -2.542713   -5.759293
  10 C     6.0000    0    12.011   -7.447498   -3.078466   -6.919168
  11 C     6.0000    0    12.011   -5.151093   -2.594716   -5.689672
  12 C     6.0000    0    12.011   -5.041992   -1.560798   -3.241429
  13 H     1.0000    0     1.008   -3.393066   -2.972800   -6.681670
  14 H     1.0000    0     1.008  -13.530569   -1.146867   -2.202593
  15 H     1.0000    0     1.008   -7.423349   -3.854612   -8.819934
  16 H     1.0000    0     1.008   -4.708709    0.204034    2.847307
  17 H     1.0000    0     1.008  -14.187012    0.586867    2.727547
  18 H     1.0000    0     1.008  -11.754807    1.718580    6.603191
  19 H     1.0000    0     1.008   -7.093598    1.484654    6.637841
  20 N     7.0000    0    14.007    5.859057    1.582023    0.782790
  21 C     6.0000    0    12.011    3.393952    2.463579    0.647620
  22 C     6.0000    0    12.011    3.012099    4.851594    1.659971
  23 S    16.0000    0    32.060    5.838749    6.069943    2.838273
  24 C     6.0000    0    12.011    7.389027    3.227542    1.873162
  25 C     6.0000    0    12.011    1.438629    0.899466   -0.497919
  26 S    16.0000    0    32.060   -1.760361    1.924051   -0.737452
  27 C     6.0000    0    12.011   -2.535819   -0.973369   -2.188623
  28 C     6.0000    0    12.011   -0.367072   -2.413912   -2.410482
  29 N     7.0000    0    14.007    1.814661   -1.383084   -1.444512
  30 H     1.0000    0     1.008    1.247517    5.883964    1.747880
  31 H     1.0000    0     1.008   -0.320635   -4.297170   -3.235772
  32 C     6.0000    0    12.011   14.664028    3.379140    3.536708
  33 S    16.0000    0    32.060   11.919896    5.159629    3.751980
  34 C     6.0000    0    12.011   10.056975    2.856747    2.287639
  35 C     6.0000    0    12.011   11.561060    0.754638    1.653180
  36 C     6.0000    0    12.011   14.179718    1.067190    2.370319
  37 N     7.0000    0    14.007   10.719692   -1.407140    0.477555
  38 C     6.0000    0    12.011   12.463847   -3.150041    0.060593
  39 C     6.0000    0    12.011   15.070501   -2.843613    0.772191
  40 N     7.0000    0    14.007   15.951018   -0.797157    1.903474
  41 H     1.0000    0     1.008   11.865193   -4.900999   -0.873363
  42 H     1.0000    0     1.008   16.417581   -4.368067    0.368287
  43 H     1.0000    0     1.008  -11.535229   -2.885096   -6.712680
  44 H     1.0000    0     1.008   16.457666    4.063543    4.243615

--------------------------------
INTERNAL COORDINATES (ANGSTROEM)
--------------------------------
 C      0   0   0     0.000000000000     0.00000000     0.00000000
 C      1   0   0     1.393240552414     0.00000000     0.00000000
 C      2   1   0     1.406777904361   119.16851578     0.00000000
 C      3   2   1     1.423592681501   118.44343649   357.80145082
 C      4   3   2     1.403184835813   122.48424990     2.51886575
 C      5   4   3     1.393080368411   117.50540078   358.99795946
 C      3   2   1     1.454181311063   134.92423240   181.86140184
 C      7   3   2     1.424584116838   106.08380516   174.46655334
 N      8   7   3     1.383799025042   109.23623528     2.32150602
 C      8   7   3     1.403332315579   122.89782860   183.40347390
 C     10   8   7     1.393372238786   117.21801780     0.63255598
 C     11  10   8     1.401985097769   121.08609498   358.32605950
 C     12  11  10     1.407530232206   122.25451275     0.20275709
 H     12  11  10     1.086769307083   118.96075467   182.24024594
 H      9   8   7     1.012578342557   125.32083429   181.09556830
 H     11  10   8     1.086541124666   119.66839498   179.36637067
 H      2   1   3     1.086094400005   119.65782111   181.00228207
 H      5   4   3     1.086763895943   121.18872438   179.63791632
 H      6   5   4     1.086740614401   119.58169097   180.12063744
 H      1   2   3     1.086611454347   119.44194437   180.09527659
 N     17   2   1     5.744407271485   162.86118804   234.70768500
 C     21  17   2     1.387227372939    30.35147459    24.49097372
 C     22  21  17     1.387341092638   115.04693617   125.48366785
 S     23  22  21     1.744096497400   110.47785025     0.00000000
 C     21  17   2     1.321614533164   126.65383705    94.56574956
 C     22  21  17     1.457112017298   119.87991172   305.49284716
 S     26  22  21     1.782053485079   122.09511367   180.16719194
 C     13  12  11     1.471681277277   117.87300793   183.90360327
 C     28  13  12     1.382748694455   126.82328903   319.56586890
 N     26  22  21     1.322675736707   124.71227692     0.45300675
 H     23  22  21     1.082844945218   126.99399822   180.01498177
 H     29  28  13     1.088346398050   123.89137034   352.75868106
 C     25  21  17     3.949945569197   135.05198690   149.13461096
 S     33  25  21     1.734760723748    37.79739438   179.98549948
 C     25  21  17     1.442162967682   125.20246299   149.13268288
 C     35  25  21     1.408414425362   128.64091927     0.00000000
 C     33  25  21     1.394071531992    72.80196872     0.00000000
 N     36  35  25     1.376194356342   125.55371784     0.00000000
 C     38  36  35     1.323327853244   115.40891081   180.00422956
 C     39  38  36     1.439023309343   123.11938356     0.00000000
 N     40  39  38     1.322212057664   123.26871110     0.00000000
 H     39  38  36     1.096880439258   117.54418829   179.99703935
 H     40  39  38     1.097544736446   119.26093785   180.00282384
 H     10   8   7     1.086264059529   121.31316980   179.94227428
 H     33  25  21     1.082585979700   159.77014697   179.98796305

---------------------------
INTERNAL COORDINATES (A.U.)
---------------------------
 C      0   0   0     0.000000000000     0.00000000     0.00000000
 C      1   0   0     2.632843082736     0.00000000     0.00000000
 C      2   1   0     2.658424970494   119.16851578     0.00000000
 C      3   2   1     2.690200294291   118.44343649   357.80145082
 C      4   3   2     2.651635054958   122.48424990     2.51886575
 C      5   4   3     2.632540378839   117.50540078   358.99795946
 C      3   2   1     2.748004426975   134.92423240   181.86140184
 C      7   3   2     2.692073835558   106.08380516   174.46655334
 N      8   7   3     2.615001181717   109.23623528     2.32150602
 C      8   7   3     2.651913751325   122.89782860   183.40347390
 C     10   8   7     2.633091933915   117.21801780     0.63255598
 C     11  10   8     2.649367878623   121.08609498   358.32605950
 C     12  11  10     2.659846664084   122.25451275     0.20275709
 H     12  11  10     2.053696361139   118.96075467   182.24024594
 H      9   8   7     1.913495756572   125.32083429   181.09556830
 H     11  10   8     2.053265158861   119.66839498   179.36637067
 H      2   1   3     2.052420971595   119.65782111   181.00228207
 H      5   4   3     2.053686135566   121.18872438   179.63791632
 H      6   5   4     2.053642139828   119.58169097   180.12063744
 H      1   2   3     2.053398062698   119.44194437   180.09527659
 N     17   2   1    10.855356544812   162.86118804   234.70768500
 C     21  17   2     2.621479820334    30.35147459    24.49097372
 C     22  21  17     2.621694719421   115.04693617   125.48366785
 S     23  22  21     3.295864731217   110.47785025     0.00000000
 C     21  17   2     2.497489522289   126.65383705    94.56574956
 C     22  21  17     2.753542659138   119.87991172   305.49284716
 S     26  22  21     3.367593042799   122.09511367   180.16719194
 C     13  12  11     2.781074570473   117.87300793   183.90360327
 C     28  13  12     2.613016344556   126.82328903   319.56586890
 N     26  22  21     2.499494906359   124.71227692     0.45300675
 H     23  22  21     2.046280391964   126.99399822   180.01498177
 H     29  28  13     2.056676631153   123.89137034   352.75868106
 C     25  21  17     7.464315369677   135.05198690   149.13461096
 S     33  25  21     3.278222675766    37.79739438   179.98549948
 C     25  21  17     2.725293049403   125.20246299   149.13268288
 C     35  25  21     2.661517546999   128.64091927     0.00000000
 C     33  25  21     2.634413406561    72.80196872     0.00000000
 N     36  35  25     2.600630440534   125.55371784     0.00000000
 C     38  36  35     2.500727228020   115.40891081   180.00422956
 C     39  38  36     2.719359954987   123.11938356     0.00000000
 N     40  39  38     2.498618679954   123.26871110     0.00000000
 H     39  38  36     2.072803631853   117.54418829   179.99703935
 H     40  39  38     2.074058971609   119.26093785   180.00282384
 H     10   8   7     2.052741581631   121.31316980   179.94227428
 H     33  25  21     2.045791018056   159.77014697   179.98796305

---------------------
BASIS SET INFORMATION
---------------------
There are 4 groups of distinct atoms

 Group   1 Type C   : 11s6p2d1f contracted to 5s3p2d1f pattern {62111/411/11/1}
 Group   2 Type N   : 11s6p2d1f contracted to 5s3p2d1f pattern {62111/411/11/1}
 Group   3 Type H   : 5s1p contracted to 3s1p pattern {311/1}
 Group   4 Type S   : 14s9p3d1f contracted to 5s5p2d1f pattern {73211/51111/21/1}

Atom   0C    basis set group =>   1
Atom   1C    basis set group =>   1
Atom   2C    basis set group =>   1
Atom   3C    basis set group =>   1
Atom   4C    basis set group =>   1
Atom   5C    basis set group =>   1
Atom   6C    basis set group =>   1
Atom   7C    basis set group =>   1
Atom   8N    basis set group =>   2
Atom   9C    basis set group =>   1
Atom  10C    basis set group =>   1
Atom  11C    basis set group =>   1
Atom  12C    basis set group =>   1
Atom  13H    basis set group =>   3
Atom  14H    basis set group =>   3
Atom  15H    basis set group =>   3
Atom  16H    basis set group =>   3
Atom  17H    basis set group =>   3
Atom  18H    basis set group =>   3
Atom  19H    basis set group =>   3
Atom  20N    basis set group =>   2
Atom  21C    basis set group =>   1
Atom  22C    basis set group =>   1
Atom  23S    basis set group =>   4
Atom  24C    basis set group =>   1
Atom  25C    basis set group =>   1
Atom  26S    basis set group =>   4
Atom  27C    basis set group =>   1
Atom  28C    basis set group =>   1
Atom  29N    basis set group =>   2
Atom  30H    basis set group =>   3
Atom  31H    basis set group =>   3
Atom  32C    basis set group =>   1
Atom  33S    basis set group =>   4
Atom  34C    basis set group =>   1
Atom  35C    basis set group =>   1
Atom  36C    basis set group =>   1
Atom  37N    basis set group =>   2
Atom  38C    basis set group =>   1
Atom  39C    basis set group =>   1
Atom  40N    basis set group =>   2
Atom  41H    basis set group =>   3
Atom  42H    basis set group =>   3
Atom  43H    basis set group =>   3
Atom  44H    basis set group =>   3
-------------------------------
AUXILIARY BASIS SET INFORMATION
-------------------------------
There are 4 groups of distinct atoms

 Group   1 Type C   : 12s5p4d2f1g contracted to 6s4p3d1f1g pattern {711111/2111/211/2/1}
 Group   2 Type N   : 12s5p4d2f1g contracted to 6s4p3d1f1g pattern {711111/2111/211/2/1}
 Group   3 Type H   : 5s2p1d contracted to 3s1p1d pattern {311/2/1}
 Group   4 Type S   : 14s5p5d2f1g contracted to 8s4p3d1f1g pattern {71111111/2111/311/2/1}

Atom   0C    basis set group =>   1
Atom   1C    basis set group =>   1
Atom   2C    basis set group =>   1
Atom   3C    basis set group =>   1
Atom   4C    basis set group =>   1
Atom   5C    basis set group =>   1
Atom   6C    basis set group =>   1
Atom   7C    basis set group =>   1
Atom   8N    basis set group =>   2
Atom   9C    basis set group =>   1
Atom  10C    basis set group =>   1
Atom  11C    basis set group =>   1
Atom  12C    basis set group =>   1
Atom  13H    basis set group =>   3
Atom  14H    basis set group =>   3
Atom  15H    basis set group =>   3
Atom  16H    basis set group =>   3
Atom  17H    basis set group =>   3
Atom  18H    basis set group =>   3
Atom  19H    basis set group =>   3
Atom  20N    basis set group =>   2
Atom  21C    basis set group =>   1
Atom  22C    basis set group =>   1
Atom  23S    basis set group =>   4
Atom  24C    basis set group =>   1
Atom  25C    basis set group =>   1
Atom  26S    basis set group =>   4
Atom  27C    basis set group =>   1
Atom  28C    basis set group =>   1
Atom  29N    basis set group =>   2
Atom  30H    basis set group =>   3
Atom  31H    basis set group =>   3
Atom  32C    basis set group =>   1
Atom  33S    basis set group =>   4
Atom  34C    basis set group =>   1
Atom  35C    basis set group =>   1
Atom  36C    basis set group =>   1
Atom  37N    basis set group =>   2
Atom  38C    basis set group =>   1
Atom  39C    basis set group =>   1
Atom  40N    basis set group =>   2
Atom  41H    basis set group =>   3
Atom  42H    basis set group =>   3
Atom  43H    basis set group =>   3
Atom  44H    basis set group =>   3
-------------------------
ECP PARAMETER INFORMATION
-------------------------



--------------------------------------------------------------------------
[[7941,1],1]: A high-performance Open MPI point-to-point messaging module
was unable to find any relevant network interfaces:

Module: OpenFabrics (openib)
  Host: cx1-105-19-2

Another transport will be used instead, although this may result in
lower performance.
--------------------------------------------------------------------------


           ************************************************************
           *        Program running with 24 parallel MPI-processes    *
           *              working on a common directory               *
           ************************************************************
------------------------------------------------------------------------------
                           ORCA GTO INTEGRAL CALCULATION
                           -- RI-GTO INTEGRALS CHOSEN --
------------------------------------------------------------------------------

                         BASIS SET STATISTICS AND STARTUP INFO

Gaussian basis set:
 # of primitive gaussian shells          ...  739
 # of primitive gaussian functions       ... 1627
 # of contracted shells                  ...  410
 # of contracted basis functions         ... 1088
 Highest angular momentum                ...    3
 Maximum contraction depth               ...    7
Auxiliary gaussian basis set:
 # of primitive gaussian shells          ...  881
 # of primitive gaussian functions       ... 2469
 # of contracted shells                  ...  551
 # of contracted aux-basis functions     ... 1717
 Highest angular momentum                ...    4
 Maximum contraction depth               ...    7
Ratio of auxiliary to basis functions    ...  1.58
Integral package used                  ... LIBINT
 One Electron integrals                  
   ECP integrals                         ... done
 Ordering auxiliary basis shells         ... done
 Integral threshhold             Thresh  ...  2.500e-11
 Primitive cut-off               TCut    ...  2.500e-12
 Pre-screening matrix                    ... done
 Shell pair data                         ... 
 Ordering of the shell pairs             ... done (   0.014 sec) 43995 of 84255 pairs
 Determination of significant pairs      ... done (   0.000 sec)
 Creation of shell pair data             ... done (   0.009 sec)
 Storage of shell pair data              ... done (   0.111 sec)
 Shell pair data done in (   0.134 sec)
 Computing two index integrals           ... done
 Cholesky decomposition of the V-matrix  ... done


Timings:
 Total evaluation time                   ...   4.920 sec (  0.082 min)
 One electron matrix time                ...   1.534 sec (  0.026 min) = 31.2%
 Schwartz matrix evaluation time         ...   2.354 sec (  0.039 min) = 47.9%
 Two index repulsion integral time       ...   0.363 sec (  0.006 min) =  7.4%
 Cholesky decomposition of V             ...   0.498 sec (  0.008 min) = 10.1%
 Three index repulsion integral time     ...   0.000 sec (  0.000 min) =  0.0%

--------------------------------------------------------------------------
[[8136,1],1]: A high-performance Open MPI point-to-point messaging module
was unable to find any relevant network interfaces:

Module: OpenFabrics (openib)
  Host: cx1-105-19-2

Another transport will be used instead, although this may result in
lower performance.
--------------------------------------------------------------------------


           ************************************************************
           *        Program running with 24 parallel MPI-processes    *
           *              working on a common directory               *
           ************************************************************
-------------------------------------------------------------------------------
                                 ORCA SCF
-------------------------------------------------------------------------------

------------
SCF SETTINGS
------------
Hamiltonian:
 Density Functional     Method          .... DFT(GTOs)
 Exchange Functional    Exchange        .... WB97X-D3
 Correlation Functional Correlation     .... WB97X-D3
 Gradients option       PostSCFGGA      .... off
 Hybrid DFT is turned on
   Fraction HF Exchange ScalHFX         ....  0.195728
   Scaling of DF-GGA-X  ScalDFX         ....  0.000000
   Scaling of DF-GGA-C  ScalDFC         ....  1.000000
   Scaling of DF-LDA-C  ScalLDAC        ....  1.000000
   Perturbative correction              ....  0.000000
 Long-range corrected/Screened/Range-Separated Hybrid DFT is turned on
   Amount of maximum screened exact exchange              ....  0.804272
   Range separation parameter mu (erf(mu*r12)/r12)        ....  0.250000
 RI-approximation to the Coulomb term is turned on
   Number of auxiliary basis functions  .... 1717
   RIJ-COSX (HFX calculated with COS-X)).... on


General Settings:
 Integral files         IntName         .... total
 Hartree-Fock type      HFTyp           .... RHF
 Total Charge           Charge          ....    0
 Multiplicity           Mult            ....    1
 Number of Electrons    NEL             ....  240
 Basis Dimension        Dim             .... 1088
 Nuclear Repulsion      ENuc            ....   3223.7518909064 Eh

Convergence Acceleration:
 DIIS                   CNVDIIS         .... on
   Start iteration      DIISMaxIt       ....    12
   Startup error        DIISStart       ....  0.200000
   # of expansion vecs  DIISMaxEq       ....     5
   Bias factor          DIISBfac        ....   1.050
   Max. coefficient     DIISMaxC        ....  10.000
 Newton-Raphson         CNVNR           .... off
 SOSCF                  CNVSOSCF        .... on
   Start iteration      SOSCFMaxIt      ....   150
   Startup grad/error   SOSCFStart      ....  0.003300
 Level Shifting         CNVShift        .... on
   Level shift para.    LevelShift      ....    0.2500
   Turn off err/grad.   ShiftErr        ....    0.0010
 Zerner damping         CNVZerner       .... off
 Static damping         CNVDamp         .... on
   Fraction old density DampFac         ....    0.7000
   Max. Damping (<1)    DampMax         ....    0.9800
   Min. Damping (>=0)   DampMin         ....    0.0000
   Turn off err/grad.   DampErr         ....    0.1000
 Fernandez-Rico         CNVRico         .... off

SCF Procedure:
 Maximum # iterations   MaxIter         ....   125
 SCF integral mode      SCFMode         .... Direct
   Integral package                     .... LIBINT
 Reset frequeny         DirectResetFreq ....    20
 Integral Threshold     Thresh          ....  2.500e-11 Eh
 Primitive CutOff       TCut            ....  2.500e-12 Eh

Convergence Tolerance:
 Convergence Check Mode ConvCheckMode   .... Total+1el-Energy
 Convergence forced     ConvForced      .... 1
 Energy Change          TolE            ....  1.000e-08 Eh
 1-El. energy change                    ....  1.000e-05 Eh
 Orbital Gradient       TolG            ....  1.000e-05
 Orbital Rotation angle TolX            ....  1.000e-05
 DIIS Error             TolErr          ....  5.000e-07


Diagonalization of the overlap matrix:
Smallest eigenvalue                        ... 6.151e-06
Time for diagonalization                   ...    0.346 sec
Threshold for overlap eigenvalues          ... 1.000e-08
Number of eigenvalues below threshold      ... 0
Time for construction of square roots      ...    0.335 sec
Total time needed                          ...    0.687 sec

-------------------
DFT GRID GENERATION
-------------------

General Integration Accuracy     IntAcc      ...  5.010
Radial Grid Type                 RadialGrid  ... Gauss-Chebyshev
Angular Grid (max. acc.)         AngularGrid ... Lebedev-434
Angular grid pruning method      GridPruning ... 3 (G Style)
Weight generation scheme         WeightScheme... Becke
Basis function cutoff            BFCut       ...    1.0000e-11
Integration weight cutoff        WCut        ...    1.0000e-14
Grids for H and He will be reduced by one unit

# of grid points (after initial pruning)     ... 431918 (   0.0 sec)
# of grid points (after weights+screening)   ... 380407 (   0.8 sec)
nearest neighbour list constructed           ...    0.0 sec
Grid point re-assignment to atoms done       ...    0.1 sec
Grid point division into batches done        ...    3.7 sec
Reduced shell lists constructed in    4.3 sec

Total number of grid points                  ...   380407
Total number of batches                      ...     5969
Average number of points per batch           ...       63
Average number of grid points per atom       ...     8453
Average number of shells per batch           ...   138.64 (33.81%)
Average number of basis functions per batch  ...   359.02 (33.00%)
Average number of large shells per batch     ...    94.26 (67.99%)
Average number of large basis fcns per batch ...   243.54 (67.83%)
Maximum spatial batch extension              ...   9.32, 14.39, 18.54 au
Average spatial batch extension              ...   0.05,  0.06,  0.06 au

Time for grid setup =    5.859 sec

------------------------------
INITIAL GUESS: MODEL POTENTIAL
------------------------------
Loading Hartree-Fock densities                     ... done
Calculating cut-offs                               ... done
Setting up the integral package                    ... done
Initializing the effective Hamiltonian             ... done
Starting the Coulomb interaction                   ... done (   0.4 sec)
Reading the grid                                   ... done
Mapping shells                                     ... done
Starting the XC term evaluation                    ... done (   1.7 sec)
  promolecular density results
     # of electrons  =    239.993595219
     EX              =   -233.982667310
     EC              =     -8.382843594
     EX+EC           =   -242.365510904
Transforming the Hamiltonian                       ... done (   0.2 sec)
Diagonalizing the Hamiltonian                      ... done (   0.3 sec)
Back transforming the eigenvectors                 ... done (   0.1 sec)
Now organizing SCF variables                       ... done
                      ------------------
                      INITIAL GUESS DONE (   8.8 sec)
                      ------------------
--------------------
COSX GRID GENERATION
--------------------

General Integration Accuracy     IntAcc      ...  3.340
Radial Grid Type                 RadialGrid  ... Gauss-Chebyshev
Angular Grid (max. acc.)         AngularGrid ... Lebedev-50
Angular grid pruning method      GridPruning ... 3 (G Style)
Weight generation scheme         WeightScheme... Becke
Basis function cutoff            BFCut       ...    1.0000e-11
Integration weight cutoff        WCut        ...    1.0000e-14
Grids for H and He will be reduced by one unit

# of grid points (after initial pruning)     ...  23028 (   0.0 sec)
# of grid points (after weights+screening)   ...  21112 (   0.0 sec)
nearest neighbour list constructed           ...    0.0 sec
Grid point re-assignment to atoms done       ...    0.0 sec
Grid point division into batches done        ...    0.0 sec
Reduced shell lists constructed in    0.1 sec

Total number of grid points                  ...    21112
Total number of batches                      ...      351
Average number of points per batch           ...       60
Average number of grid points per atom       ...      469
Average number of shells per batch           ...   151.94 (37.06%)
Average number of basis functions per batch  ...   398.94 (36.67%)
Average number of large shells per batch     ...   105.38 (69.35%)
Average number of large basis fcns per batch ...   276.75 (69.37%)
Maximum spatial batch extension              ...   3.95, 19.05, 14.35 au
Average spatial batch extension              ...   0.10,  0.27,  0.16 au

Overlap Fitting                  UseSFitting ... on
Constructing numerical overlap ... done (      0.1 sec)
Inverting numerical overlap    ... done (      0.1 sec)
Obtaining analytic overlap     ... done (      0.0 sec)
Final contraction and storage  ... done (      0.4 sec)


General Integration Accuracy     IntAcc      ...  3.670
Radial Grid Type                 RadialGrid  ... Gauss-Chebyshev
Angular Grid (max. acc.)         AngularGrid ... Lebedev-50
Angular grid pruning method      GridPruning ... 3 (G Style)
Weight generation scheme         WeightScheme... Becke
Basis function cutoff            BFCut       ...    1.0000e-11
Integration weight cutoff        WCut        ...    1.0000e-14
Grids for H and He will be reduced by one unit

# of grid points (after initial pruning)     ...  28752 (   0.0 sec)
# of grid points (after weights+screening)   ...  26263 (   0.1 sec)
nearest neighbour list constructed           ...    0.0 sec
Grid point re-assignment to atoms done       ...    0.0 sec
Grid point division into batches done        ...    0.0 sec
Reduced shell lists constructed in    0.1 sec

Total number of grid points                  ...    26263
Total number of batches                      ...      430
Average number of points per batch           ...       61
Average number of grid points per atom       ...      584
Average number of shells per batch           ...   152.26 (37.14%)
Average number of basis functions per batch  ...   398.79 (36.65%)
Average number of large shells per batch     ...   105.00 (68.96%)
Average number of large basis fcns per batch ...   275.11 (68.99%)
Maximum spatial batch extension              ...   3.61, 30.27, 13.63 au
Average spatial batch extension              ...   0.09,  0.22,  0.15 au

Overlap Fitting                  UseSFitting ... on
Constructing numerical overlap ... done (      0.1 sec)
Inverting numerical overlap    ... done (      0.1 sec)
Obtaining analytic overlap     ... done (      0.0 sec)
Final contraction and storage  ... done (      0.4 sec)


General Integration Accuracy     IntAcc      ...  4.010
Radial Grid Type                 RadialGrid  ... Gauss-Chebyshev
Angular Grid (max. acc.)         AngularGrid ... Lebedev-110
Angular grid pruning method      GridPruning ... 3 (G Style)
Weight generation scheme         WeightScheme... Becke
Basis function cutoff            BFCut       ...    1.0000e-11
Integration weight cutoff        WCut        ...    1.0000e-14
Grids for H and He will be reduced by one unit

# of grid points (after initial pruning)     ...  56152 (   0.0 sec)
# of grid points (after weights+screening)   ...  50814 (   0.1 sec)
nearest neighbour list constructed           ...    0.0 sec
Grid point re-assignment to atoms done       ...    0.0 sec
Grid point division into batches done        ...    0.1 sec
Reduced shell lists constructed in    0.2 sec

Total number of grid points                  ...    50814
Total number of batches                      ...      813
Average number of points per batch           ...       62
Average number of grid points per atom       ...     1129
Average number of shells per batch           ...   148.80 (36.29%)
Average number of basis functions per batch  ...   389.89 (35.84%)
Average number of large shells per batch     ...   102.89 (69.14%)
Average number of large basis fcns per batch ...   269.29 (69.07%)
Maximum spatial batch extension              ...   4.76, 24.61, 14.24 au
Average spatial batch extension              ...   0.09,  0.18,  0.13 au

Overlap Fitting                  UseSFitting ... on
Constructing numerical overlap ... done (      0.2 sec)
Inverting numerical overlap    ... done (      0.1 sec)
Obtaining analytic overlap     ... done (      0.0 sec)
Final contraction and storage  ... done (      0.4 sec)

Time for X-Grid setup             =    3.055 sec
--------------
SCF ITERATIONS
--------------
ITER       Energy         Delta-E        Max-DP      RMS-DP      [F,P]     Damp
               ***  Starting incremental Fock matrix formation  ***
  0  -2390.0307340787   0.000000000000 0.15611015  0.00068080  0.2025795 0.7000
  1  -2390.3488582597  -0.318124180961 0.13562980  0.00053339  0.0955981 0.7000
                               ***Turning on DIIS***
  2  -2390.4930565019  -0.144198242273 0.17943892  0.00100241  0.0546254 0.0000
  3  -2390.7239255312  -0.230869029303 0.11781356  0.00042724  0.0448979 0.0000
  4  -2390.7710022726  -0.047076741349 0.01572290  0.00014531  0.0115125 0.0000
  5  -2390.7733625388  -0.002360266259 0.00836970  0.00006245  0.0067643 0.0000
                      *** Initiating the SOSCF procedure ***
                           *** Shutting down DIIS ***
                      *** Re-Reading the Fockian *** 
                      *** Removing any level shift *** 
ITER      Energy       Delta-E        Grad      Rot      Max-DP    RMS-DP
  6  -2390.77396558  -0.0006030450  0.002484  0.002484  0.003469  0.000035
               *** Restarting incremental Fock matrix formation ***
  7  -2390.77420928  -0.0002437008  0.001603  0.005161  0.009104  0.000091
  8  -2390.77431924  -0.0001099510  0.000737  0.006499  0.005367  0.000062
  9  -2390.77434972  -0.0000304827  0.000344  0.000702  0.004930  0.000049
 10  -2390.77436360  -0.0000138821  0.000095  0.000250  0.000640  0.000008
 11  -2390.77436426  -0.0000006580  0.000088  0.000155  0.000611  0.000006
 12  -2390.77436507  -0.0000008110  0.000026  0.000134  0.000082  0.000001
 13  -2390.77436510  -0.0000000266  0.000015  0.000043  0.000134  0.000001
 14  -2390.77436516  -0.0000000632  0.000004  0.000018  0.000127  0.000001
 15  -2390.77436520  -0.0000000447  0.000003  0.000012  0.000133  0.000001
                  ***Gradient check signals convergence***
              ***Rediagonalizing the Fockian in SOSCF/NRSCF***

               *****************************************************
               *                     SUCCESS                       *
               *           SCF CONVERGED AFTER  16 CYCLES          *
               *****************************************************

Old exchange energy                            =    -72.146752485 Eh
New exchange energy                            =    -72.147700242 Eh
Exchange energy change after final integration =     -0.000947757 Eh
Total energy after final integration           =  -2390.775312896 Eh
Final COS-X integration done in                =    31.307 sec

----------------
TOTAL SCF ENERGY
----------------

Total Energy       :        -2390.77531290 Eh          -65056.30366 eV

Components:
Nuclear Repulsion  :         3223.75189091 Eh           87722.74869 eV
Electronic Energy  :        -5614.52720380 Eh         -152779.05235 eV
One Electron Energy:        -9685.48669196 Eh         -263555.49179 eV
Two Electron Energy:         4070.95948816 Eh          110776.43944 eV

Virial components:
Potential Energy   :        -4772.75975834 Eh         -129873.39566 eV
Kinetic Energy     :         2381.98444545 Eh           64817.09200 eV
Virial Ratio       :            2.00369056


DFT components:
N(Alpha)           :      119.999977442879 electrons
N(Beta)            :      119.999977442879 electrons
N(Total)           :      239.999954885757 electrons
E(XC)              :     -174.289027669736 Eh       

---------------
SCF CONVERGENCE
---------------

  Last Energy change         ...    6.4796e-08  Tolerance :   1.0000e-08
  Last MAX-Density change    ...    8.3329e-14  Tolerance :   1.0000e-07
  Last RMS-Density change    ...    3.2434e-16  Tolerance :   5.0000e-09
  Last Orbital Gradient      ...    6.6112e-07  Tolerance :   1.0000e-05
  Last Orbital Rotation      ...    4.9712e-06  Tolerance :   1.0000e-05

             **** THE GBW FILE WAS UPDATED (total.gbw) ****
             **** DENSITY FILE WAS UPDATED (total.scfp.tmp) ****
             **** ENERGY FILE WAS UPDATED (total.en.tmp) ****
----------------
ORBITAL ENERGIES
----------------

  NO   OCC          E(Eh)            E(eV) 
   0   2.0000     -89.014839     -2422.2169 
   1   2.0000     -88.997069     -2421.7334 
   2   2.0000     -88.986190     -2421.4373 
   3   2.0000     -14.469330      -393.7305 
   4   2.0000     -14.452903      -393.2835 
   5   2.0000     -14.447084      -393.1252 
   6   2.0000     -14.431590      -392.7035 
   7   2.0000     -14.424486      -392.5102 
   8   2.0000     -10.372900      -282.2610 
   9   2.0000     -10.357629      -281.8454 
  10   2.0000     -10.343647      -281.4649 
  11   2.0000     -10.340632      -281.3829 
  12   2.0000     -10.339041      -281.3396 
  13   2.0000     -10.338603      -281.3277 
  14   2.0000     -10.338527      -281.3256 
  15   2.0000     -10.337290      -281.2920 
  16   2.0000     -10.334428      -281.2141 
  17   2.0000     -10.330152      -281.0977 
  18   2.0000     -10.328915      -281.0641 
  19   2.0000     -10.327051      -281.0133 
  20   2.0000     -10.326130      -280.9883 
  21   2.0000     -10.312014      -280.6042 
  22   2.0000     -10.311548      -280.5915 
  23   2.0000     -10.296541      -280.1831 
  24   2.0000     -10.291261      -280.0394 
  25   2.0000     -10.291060      -280.0340 
  26   2.0000     -10.289482      -279.9910 
  27   2.0000     -10.287427      -279.9351 
  28   2.0000     -10.285842      -279.8920 
  29   2.0000     -10.285029      -279.8699 
  30   2.0000     -10.283140      -279.8185 
  31   2.0000     -10.276158      -279.6285 
  32   2.0000      -8.110254      -220.6912 
  33   2.0000      -8.093576      -220.2374 
  34   2.0000      -8.082947      -219.9482 
  35   2.0000      -6.063177      -164.9874 
  36   2.0000      -6.059087      -164.8761 
  37   2.0000      -6.058231      -164.8528 
  38   2.0000      -6.046768      -164.5409 
  39   2.0000      -6.042704      -164.4303 
  40   2.0000      -6.040696      -164.3757 
  41   2.0000      -6.035983      -164.2474 
  42   2.0000      -6.032137      -164.1428 
  43   2.0000      -6.030102      -164.0874 
  44   2.0000      -1.106055       -30.0973 
  45   2.0000      -1.103741       -30.0343 
  46   2.0000      -1.089027       -29.6339 
  47   2.0000      -1.068098       -29.0644 
  48   2.0000      -1.030979       -28.0544 
  49   2.0000      -1.008308       -27.4375 
  50   2.0000      -0.977980       -26.6122 
  51   2.0000      -0.966683       -26.3048 
  52   2.0000      -0.922440       -25.1009 
  53   2.0000      -0.918651       -24.9978 
  54   2.0000      -0.912670       -24.8350 
  55   2.0000      -0.898537       -24.4504 
  56   2.0000      -0.881688       -23.9920 
  57   2.0000      -0.877840       -23.8872 
  58   2.0000      -0.862774       -23.4773 
  59   2.0000      -0.845133       -22.9972 
  60   2.0000      -0.839525       -22.8446 
  61   2.0000      -0.817548       -22.2466 
  62   2.0000      -0.786351       -21.3977 
  63   2.0000      -0.766836       -20.8667 
  64   2.0000      -0.754170       -20.5220 
  65   2.0000      -0.734449       -19.9854 
  66   2.0000      -0.724365       -19.7110 
  67   2.0000      -0.721696       -19.6383 
  68   2.0000      -0.714029       -19.4297 
  69   2.0000      -0.696452       -18.9514 
  70   2.0000      -0.672197       -18.2914 
  71   2.0000      -0.661586       -18.0027 
  72   2.0000      -0.645852       -17.5745 
  73   2.0000      -0.639773       -17.4091 
  74   2.0000      -0.635446       -17.2914 
  75   2.0000      -0.623253       -16.9596 
  76   2.0000      -0.613357       -16.6903 
  77   2.0000      -0.608670       -16.5628 
  78   2.0000      -0.602505       -16.3950 
  79   2.0000      -0.582823       -15.8594 
  80   2.0000      -0.563651       -15.3377 
  81   2.0000      -0.558115       -15.1871 
  82   2.0000      -0.557788       -15.1782 
  83   2.0000      -0.557494       -15.1702 
  84   2.0000      -0.547744       -14.9049 
  85   2.0000      -0.543108       -14.7787 
  86   2.0000      -0.538984       -14.6665 
  87   2.0000      -0.533755       -14.5242 
  88   2.0000      -0.530881       -14.4460 
  89   2.0000      -0.530280       -14.4297 
  90   2.0000      -0.522221       -14.2104 
  91   2.0000      -0.519856       -14.1460 
  92   2.0000      -0.508765       -13.8442 
  93   2.0000      -0.504717       -13.7341 
  94   2.0000      -0.497355       -13.5337 
  95   2.0000      -0.480455       -13.0739 
  96   2.0000      -0.473468       -12.8837 
  97   2.0000      -0.470924       -12.8145 
  98   2.0000      -0.466564       -12.6959 
  99   2.0000      -0.465207       -12.6589 
 100   2.0000      -0.458401       -12.4737 
 101   2.0000      -0.451401       -12.2832 
 102   2.0000      -0.444532       -12.0963 
 103   2.0000      -0.443347       -12.0641 
 104   2.0000      -0.438830       -11.9412 
 105   2.0000      -0.434039       -11.8108 
 106   2.0000      -0.421188       -11.4611 
 107   2.0000      -0.394211       -10.7270 
 108   2.0000      -0.385816       -10.4986 
 109   2.0000      -0.381388       -10.3781 
 110   2.0000      -0.377494       -10.2721 
 111   2.0000      -0.369218       -10.0469 
 112   2.0000      -0.359972        -9.7953 
 113   2.0000      -0.353788        -9.6271 
 114   2.0000      -0.348063        -9.4713 
 115   2.0000      -0.342455        -9.3187 
 116   2.0000      -0.321748        -8.7552 
 117   2.0000      -0.299867        -8.1598 
 118   2.0000      -0.293710        -7.9923 
 119   2.0000      -0.278730        -7.5846 
 120   0.0000      -0.042650        -1.1606 
 121   0.0000      -0.003874        -0.1054 
 122   0.0000       0.023491         0.6392 
 123   0.0000       0.036911         1.0044 
 124   0.0000       0.053050         1.4436 
 125   0.0000       0.059117         1.6087 
 126   0.0000       0.069510         1.8915 
 127   0.0000       0.078472         2.1353 
 128   0.0000       0.090628         2.4661 
 129   0.0000       0.099100         2.6966 
 130   0.0000       0.107786         2.9330 
 131   0.0000       0.111230         3.0267 
 132   0.0000       0.117680         3.2022 
 133   0.0000       0.118660         3.2289 
 134   0.0000       0.128215         3.4889 
 135   0.0000       0.133372         3.6292 
 136   0.0000       0.138476         3.7681 
 137   0.0000       0.142493         3.8774 
 138   0.0000       0.146970         3.9992 
 139   0.0000       0.148457         4.0397 
 140   0.0000       0.154018         4.1910 
 141   0.0000       0.156992         4.2720 
 142   0.0000       0.159538         4.3413 
 143   0.0000       0.163759         4.4561 
 144   0.0000       0.170542         4.6407 
 145   0.0000       0.176043         4.7904 
 146   0.0000       0.179166         4.8754 
 147   0.0000       0.181423         4.9368 
 148   0.0000       0.184278         5.0145 
 149   0.0000       0.186058         5.0629 
 150   0.0000       0.197244         5.3673 
 151   0.0000       0.204587         5.5671 
 152   0.0000       0.210109         5.7174 
 153   0.0000       0.212494         5.7823 
 154   0.0000       0.215321         5.8592 
 155   0.0000       0.216956         5.9037 
 156   0.0000       0.225757         6.1432 
 157   0.0000       0.231811         6.3079 
 158   0.0000       0.236838         6.4447 
 159   0.0000       0.241216         6.5638 
 160   0.0000       0.245372         6.6769 
 161   0.0000       0.250992         6.8298 
 162   0.0000       0.258912         7.0454 
 163   0.0000       0.260036         7.0759 
 164   0.0000       0.265303         7.2193 
 165   0.0000       0.270464         7.3597 
 166   0.0000       0.270834         7.3698 
 167   0.0000       0.272070         7.4034 
 168   0.0000       0.275992         7.5101 
 169   0.0000       0.280747         7.6395 
 170   0.0000       0.285160         7.7596 
 171   0.0000       0.287622         7.8266 
 172   0.0000       0.290514         7.9053 
 173   0.0000       0.293907         7.9976 
 174   0.0000       0.296454         8.0669 
 175   0.0000       0.298534         8.1235 
 176   0.0000       0.300177         8.1682 
 177   0.0000       0.302477         8.2308 
 178   0.0000       0.303255         8.2520 
 179   0.0000       0.308504         8.3948 
 180   0.0000       0.311047         8.4640 
 181   0.0000       0.318258         8.6602 
 182   0.0000       0.321887         8.7590 
 183   0.0000       0.326498         8.8845 
 184   0.0000       0.328520         8.9395 
 185   0.0000       0.331960         9.0331 
 186   0.0000       0.335190         9.1210 
 187   0.0000       0.337126         9.1737 
 188   0.0000       0.339803         9.2465 
 189   0.0000       0.344052         9.3621 
 190   0.0000       0.347215         9.4482 
 191   0.0000       0.352931         9.6037 
 192   0.0000       0.354705         9.6520 
 193   0.0000       0.359021         9.7695 
 194   0.0000       0.362464         9.8632 
 195   0.0000       0.365952         9.9581 
 196   0.0000       0.367303         9.9948 
 197   0.0000       0.369728        10.0608 
 198   0.0000       0.372385        10.1331 
 199   0.0000       0.377966        10.2850 
 200   0.0000       0.379081        10.3153 
 201   0.0000       0.381950        10.3934 
 202   0.0000       0.384999        10.4763 
 203   0.0000       0.390948        10.6382 
 204   0.0000       0.395433        10.7603 
 205   0.0000       0.398473        10.8430 
 206   0.0000       0.399582        10.8732 
 207   0.0000       0.402641        10.9564 
 208   0.0000       0.408182        11.1072 
 209   0.0000       0.409233        11.1358 
 210   0.0000       0.411854        11.2071 
 211   0.0000       0.420436        11.4406 
 212   0.0000       0.421652        11.4737 
 213   0.0000       0.424223        11.5437 
 214   0.0000       0.428318        11.6551 
 215   0.0000       0.429296        11.6817 
 216   0.0000       0.431003        11.7282 
 217   0.0000       0.434784        11.8311 
 218   0.0000       0.436791        11.8857 
 219   0.0000       0.438542        11.9333 
 220   0.0000       0.441040        12.0013 
 221   0.0000       0.441251        12.0070 
 222   0.0000       0.444742        12.1020 
 223   0.0000       0.445770        12.1300 
 224   0.0000       0.452535        12.3141 
 225   0.0000       0.454252        12.3608 
 226   0.0000       0.456758        12.4290 
 227   0.0000       0.463847        12.6219 
 228   0.0000       0.464891        12.6503 
 229   0.0000       0.466983        12.7073 
 230   0.0000       0.469552        12.7772 
 231   0.0000       0.475011        12.9257 
 232   0.0000       0.475822        12.9478 
 233   0.0000       0.481106        13.0915 
 234   0.0000       0.482084        13.1182 
 235   0.0000       0.487259        13.2590 
 236   0.0000       0.488511        13.2931 
 237   0.0000       0.490629        13.3507 
 238   0.0000       0.494248        13.4492 
 239   0.0000       0.496680        13.5154 
 240   0.0000       0.499356        13.5882 
 241   0.0000       0.499974        13.6050 
 242   0.0000       0.504293        13.7225 
 243   0.0000       0.513115        13.9626 
 244   0.0000       0.514663        14.0047 
 245   0.0000       0.517599        14.0846 
 246   0.0000       0.523828        14.2541 
 247   0.0000       0.528278        14.3752 
 248   0.0000       0.530592        14.4381 
 249   0.0000       0.533816        14.5259 
 250   0.0000       0.535727        14.5779 
 251   0.0000       0.536573        14.6009 
 252   0.0000       0.545158        14.8345 
 253   0.0000       0.546815        14.8796 
 254   0.0000       0.548907        14.9365 
 255   0.0000       0.549481        14.9521 
 256   0.0000       0.552848        15.0438 
 257   0.0000       0.560073        15.2404 
 258   0.0000       0.562517        15.3069 
 259   0.0000       0.566647        15.4192 
 260   0.0000       0.570044        15.5117 
 261   0.0000       0.570893        15.5348 
 262   0.0000       0.574510        15.6332 
 263   0.0000       0.580463        15.7952 
 264   0.0000       0.587726        15.9928 
 265   0.0000       0.588015        16.0007 
 266   0.0000       0.592846        16.1322 
 267   0.0000       0.596827        16.2405 
 268   0.0000       0.598222        16.2784 
 269   0.0000       0.605600        16.4792 
 270   0.0000       0.606835        16.5128 
 271   0.0000       0.608630        16.5617 
 272   0.0000       0.616350        16.7717 
 273   0.0000       0.622595        16.9417 
 274   0.0000       0.624381        16.9903 
 275   0.0000       0.633338        17.2340 
 276   0.0000       0.640404        17.4263 
 277   0.0000       0.647184        17.6108 
 278   0.0000       0.656567        17.8661 
 279   0.0000       0.661643        18.0042 
 280   0.0000       0.664855        18.0916 
 281   0.0000       0.672207        18.2917 
 282   0.0000       0.675242        18.3743 
 283   0.0000       0.679519        18.4906 
 284   0.0000       0.682800        18.5799 
 285   0.0000       0.685287        18.6476 
 286   0.0000       0.686986        18.6938 
 287   0.0000       0.689858        18.7720 
 288   0.0000       0.691131        18.8066 
 289   0.0000       0.696794        18.9607 
 290   0.0000       0.697581        18.9821 
 291   0.0000       0.701004        19.0753 
 292   0.0000       0.702066        19.1042 
 293   0.0000       0.707362        19.2483 
 294   0.0000       0.708348        19.2751 
 295   0.0000       0.712157        19.3788 
 296   0.0000       0.716925        19.5085 
 297   0.0000       0.722066        19.6484 
 298   0.0000       0.725555        19.7434 
 299   0.0000       0.729333        19.8462 
 300   0.0000       0.733666        19.9641 
 301   0.0000       0.736623        20.0445 
 302   0.0000       0.737257        20.0618 
 303   0.0000       0.745998        20.2996 
 304   0.0000       0.749505        20.3951 
 305   0.0000       0.749548        20.3962 
 306   0.0000       0.751714        20.4552 
 307   0.0000       0.753136        20.4939 
 308   0.0000       0.756841        20.5947 
 309   0.0000       0.762963        20.7613 
 310   0.0000       0.768974        20.9248 
 311   0.0000       0.769662        20.9436 
 312   0.0000       0.776976        21.1426 
 313   0.0000       0.782120        21.2826 
 314   0.0000       0.786000        21.3881 
 315   0.0000       0.788064        21.4443 
 316   0.0000       0.790317        21.5056 
 317   0.0000       0.791826        21.5467 
 318   0.0000       0.797468        21.7002 
 319   0.0000       0.801406        21.8074 
 320   0.0000       0.805440        21.9171 
 321   0.0000       0.811073        22.0704 
 322   0.0000       0.816578        22.2202 
 323   0.0000       0.817280        22.2393 
 324   0.0000       0.823416        22.4063 
 325   0.0000       0.825205        22.4550 
 326   0.0000       0.830838        22.6082 
 327   0.0000       0.834830        22.7169 
 328   0.0000       0.837077        22.7780 
 329   0.0000       0.840920        22.8826 
 330   0.0000       0.845214        22.9994 
 331   0.0000       0.854435        23.2504 
 332   0.0000       0.857347        23.3296 
 333   0.0000       0.860291        23.4097 
 334   0.0000       0.864903        23.5352 
 335   0.0000       0.875434        23.8218 
 336   0.0000       0.883464        24.0403 
 337   0.0000       0.885736        24.1021 
 338   0.0000       0.892207        24.2782 
 339   0.0000       0.896229        24.3876 
 340   0.0000       0.898692        24.4547 
 341   0.0000       0.903272        24.5793 
 342   0.0000       0.904822        24.6214 
 343   0.0000       0.911484        24.8027 
 344   0.0000       0.912657        24.8347 
 345   0.0000       0.919262        25.0144 
 346   0.0000       0.923786        25.1375 
 347   0.0000       0.932570        25.3765 
 348   0.0000       0.937331        25.5061 
 349   0.0000       0.939301        25.5597 
 350   0.0000       0.943299        25.6685 
 351   0.0000       0.948430        25.8081 
 352   0.0000       0.951586        25.8940 
 353   0.0000       0.958888        26.0927 
 354   0.0000       0.963027        26.2053 
 355   0.0000       0.971409        26.4334 
 356   0.0000       0.973437        26.4886 
 357   0.0000       0.981508        26.7082 
 358   0.0000       0.984574        26.7916 
 359   0.0000       0.991359        26.9762 
 360   0.0000       1.001051        27.2400 
 361   0.0000       1.004626        27.3373 
 362   0.0000       1.008975        27.4556 
 363   0.0000       1.014678        27.6108 
 364   0.0000       1.024213        27.8703 
 365   0.0000       1.030455        28.0401 
 366   0.0000       1.034585        28.1525 
 367   0.0000       1.035383        28.1742 
 368   0.0000       1.040850        28.3230 
 369   0.0000       1.052830        28.6490 
 370   0.0000       1.059162        28.8213 
 371   0.0000       1.067173        29.0393 
 372   0.0000       1.068035        29.0627 
 373   0.0000       1.069826        29.1115 
 374   0.0000       1.076557        29.2946 
 375   0.0000       1.077715        29.3261 
 376   0.0000       1.082119        29.4460 
 377   0.0000       1.087057        29.5803 
 378   0.0000       1.093820        29.7644 
 379   0.0000       1.100286        29.9403 
 380   0.0000       1.110915        30.2295 
 381   0.0000       1.116333        30.3770 
 382   0.0000       1.122335        30.5403 
 383   0.0000       1.136563        30.9274 
 384   0.0000       1.138333        30.9756 
 385   0.0000       1.140521        31.0351 
 386   0.0000       1.149278        31.2734 
 387   0.0000       1.156080        31.4585 
 388   0.0000       1.163437        31.6587 
 389   0.0000       1.177488        32.0411 
 390   0.0000       1.180149        32.1135 
 391   0.0000       1.187884        32.3240 
 392   0.0000       1.194860        32.5138 
 393   0.0000       1.197242        32.5786 
 394   0.0000       1.199926        32.6517 
 395   0.0000       1.206039        32.8180 
 396   0.0000       1.211680        32.9715 
 397   0.0000       1.214392        33.0453 
 398   0.0000       1.215472        33.0747 
 399   0.0000       1.225394        33.3447 
 400   0.0000       1.233702        33.5707 
 401   0.0000       1.242942        33.8222 
 402   0.0000       1.249646        34.0046 
 403   0.0000       1.254281        34.1307 
 404   0.0000       1.272035        34.6138 
 405   0.0000       1.278360        34.7859 
 406   0.0000       1.283201        34.9177 
 407   0.0000       1.292407        35.1682 
 408   0.0000       1.293549        35.1993 
 409   0.0000       1.297836        35.3159 
 410   0.0000       1.302841        35.4521 
 411   0.0000       1.309457        35.6321 
 412   0.0000       1.315072        35.7849 
 413   0.0000       1.317327        35.8463 
 414   0.0000       1.323363        36.0105 
 415   0.0000       1.333215        36.2786 
 416   0.0000       1.337115        36.3847 
 417   0.0000       1.345252        36.6062 
 418   0.0000       1.346426        36.6381 
 419   0.0000       1.351320        36.7713 
 420   0.0000       1.362406        37.0730 
 421   0.0000       1.367414        37.2092 
 422   0.0000       1.369268        37.2597 
 423   0.0000       1.372764        37.3548 
 424   0.0000       1.377029        37.4709 
 425   0.0000       1.388699        37.7884 
 426   0.0000       1.391871        37.8747 
 427   0.0000       1.392817        37.9005 
 428   0.0000       1.398482        38.0546 
 429   0.0000       1.404434        38.2166 
 430   0.0000       1.424292        38.7570 
 431   0.0000       1.430720        38.9319 
 432   0.0000       1.435154        39.0525 
 433   0.0000       1.440791        39.2059 
 434   0.0000       1.445443        39.3325 
 435   0.0000       1.458812        39.6963 
 436   0.0000       1.463658        39.8282 
 437   0.0000       1.465872        39.8884 
 438   0.0000       1.469468        39.9863 
 439   0.0000       1.472371        40.0653 
 440   0.0000       1.477181        40.1961 
 441   0.0000       1.487525        40.4776 
 442   0.0000       1.494409        40.6649 
 443   0.0000       1.499866        40.8134 
 444   0.0000       1.502977        40.8981 
 445   0.0000       1.508509        41.0486 
 446   0.0000       1.513639        41.1882 
 447   0.0000       1.519474        41.3470 
 448   0.0000       1.521333        41.3976 
 449   0.0000       1.525624        41.5143 
 450   0.0000       1.538819        41.8734 
 451   0.0000       1.544035        42.0153 
 452   0.0000       1.547136        42.0997 
 453   0.0000       1.551993        42.2319 
 454   0.0000       1.553097        42.2619 
 455   0.0000       1.554564        42.3018 
 456   0.0000       1.556305        42.3492 
 457   0.0000       1.560952        42.4757 
 458   0.0000       1.567132        42.6438 
 459   0.0000       1.568437        42.6793 
 460   0.0000       1.571380        42.7594 
 461   0.0000       1.575042        42.8591 
 462   0.0000       1.577634        42.9296 
 463   0.0000       1.582468        43.0611 
 464   0.0000       1.589780        43.2601 
 465   0.0000       1.593520        43.3619 
 466   0.0000       1.599260        43.5181 
 467   0.0000       1.602742        43.6128 
 468   0.0000       1.605663        43.6923 
 469   0.0000       1.608366        43.7659 
 470   0.0000       1.613517        43.9060 
 471   0.0000       1.615192        43.9516 
 472   0.0000       1.623160        44.1684 
 473   0.0000       1.631344        44.3911 
 474   0.0000       1.634627        44.4805 
 475   0.0000       1.639665        44.6175 
 476   0.0000       1.641790        44.6754 
 477   0.0000       1.643317        44.7169 
 478   0.0000       1.650654        44.9166 
 479   0.0000       1.655444        45.0469 
 480   0.0000       1.661384        45.2086 
 481   0.0000       1.666518        45.3483 
 482   0.0000       1.668354        45.3982 
 483   0.0000       1.675117        45.5823 
 484   0.0000       1.679646        45.7055 
 485   0.0000       1.684828        45.8465 
 486   0.0000       1.688459        45.9453 
 487   0.0000       1.691524        46.0287 
 488   0.0000       1.693996        46.0960 
 489   0.0000       1.697262        46.1848 
 490   0.0000       1.699717        46.2516 
 491   0.0000       1.706890        46.4468 
 492   0.0000       1.711043        46.5599 
 493   0.0000       1.712153        46.5900 
 494   0.0000       1.718141        46.7530 
 495   0.0000       1.723426        46.8968 
 496   0.0000       1.730851        47.0989 
 497   0.0000       1.735838        47.2345 
 498   0.0000       1.737075        47.2682 
 499   0.0000       1.746226        47.5172 
 500   0.0000       1.748113        47.5686 
 501   0.0000       1.754747        47.7491 
 502   0.0000       1.758083        47.8399 
 503   0.0000       1.765865        48.0516 
 504   0.0000       1.776854        48.3507 
 505   0.0000       1.784350        48.5546 
 506   0.0000       1.784835        48.5678 
 507   0.0000       1.787888        48.6509 
 508   0.0000       1.790901        48.7329 
 509   0.0000       1.795664        48.8625 
 510   0.0000       1.802505        49.0487 
 511   0.0000       1.803270        49.0695 
 512   0.0000       1.804086        49.0917 
 513   0.0000       1.810282        49.2603 
 514   0.0000       1.814112        49.3645 
 515   0.0000       1.816092        49.4184 
 516   0.0000       1.821423        49.5634 
 517   0.0000       1.827042        49.7164 
 518   0.0000       1.831804        49.8459 
 519   0.0000       1.841303        50.1044 
 520   0.0000       1.846724        50.2519 
 521   0.0000       1.850640        50.3585 
 522   0.0000       1.861207        50.6460 
 523   0.0000       1.862119        50.6708 
 524   0.0000       1.872890        50.9639 
 525   0.0000       1.874920        51.0192 
 526   0.0000       1.875632        51.0385 
 527   0.0000       1.881548        51.1995 
 528   0.0000       1.886154        51.3249 
 529   0.0000       1.890174        51.4343 
 530   0.0000       1.897477        51.6330 
 531   0.0000       1.902392        51.7667 
 532   0.0000       1.905768        51.8586 
 533   0.0000       1.911306        52.0093 
 534   0.0000       1.918591        52.2075 
 535   0.0000       1.926069        52.4110 
 536   0.0000       1.935749        52.6744 
 537   0.0000       1.937634        52.7257 
 538   0.0000       1.949160        53.0393 
 539   0.0000       1.957840        53.2755 
 540   0.0000       1.965920        53.4954 
 541   0.0000       1.971536        53.6482 
 542   0.0000       1.972036        53.6618 
 543   0.0000       1.975119        53.7457 
 544   0.0000       1.980438        53.8905 
 545   0.0000       1.982274        53.9404 
 546   0.0000       1.986744        54.0621 
 547   0.0000       1.992409        54.2162 
 548   0.0000       1.996381        54.3243 
 549   0.0000       2.018200        54.9180 
 550   0.0000       2.020255        54.9739 
 551   0.0000       2.024858        55.0992 
 552   0.0000       2.028414        55.1960 
 553   0.0000       2.030573        55.2547 
 554   0.0000       2.044060        55.6217 
 555   0.0000       2.049458        55.7686 
 556   0.0000       2.053593        55.8811 
 557   0.0000       2.054308        55.9006 
 558   0.0000       2.062053        56.1113 
 559   0.0000       2.065771        56.2125 
 560   0.0000       2.068653        56.2909 
 561   0.0000       2.074642        56.4539 
 562   0.0000       2.083153        56.6855 
 563   0.0000       2.093806        56.9754 
 564   0.0000       2.104905        57.2774 
 565   0.0000       2.114966        57.5511 
 566   0.0000       2.119348        57.6704 
 567   0.0000       2.121949        57.7412 
 568   0.0000       2.131476        58.0004 
 569   0.0000       2.135141        58.1001 
 570   0.0000       2.137986        58.1776 
 571   0.0000       2.141934        58.2850 
 572   0.0000       2.145291        58.3763 
 573   0.0000       2.151088        58.5341 
 574   0.0000       2.165508        58.9265 
 575   0.0000       2.176831        59.2346 
 576   0.0000       2.178201        59.2719 
 577   0.0000       2.182878        59.3991 
 578   0.0000       2.185086        59.4592 
 579   0.0000       2.193742        59.6948 
 580   0.0000       2.196299        59.7643 
 581   0.0000       2.200991        59.8920 
 582   0.0000       2.205411        60.0123 
 583   0.0000       2.211641        60.1818 
 584   0.0000       2.221044        60.4377 
 585   0.0000       2.225852        60.5685 
 586   0.0000       2.233746        60.7833 
 587   0.0000       2.239752        60.9468 
 588   0.0000       2.252563        61.2954 
 589   0.0000       2.253414        61.3185 
 590   0.0000       2.269897        61.7670 
 591   0.0000       2.276817        61.9553 
 592   0.0000       2.279457        62.0272 
 593   0.0000       2.287641        62.2499 
 594   0.0000       2.292367        62.3785 
 595   0.0000       2.297253        62.5114 
 596   0.0000       2.303176        62.6726 
 597   0.0000       2.313079        62.9421 
 598   0.0000       2.315168        62.9989 
 599   0.0000       2.316682        63.0401 
 600   0.0000       2.320924        63.1555 
 601   0.0000       2.330631        63.4197 
 602   0.0000       2.333567        63.4996 
 603   0.0000       2.346294        63.8459 
 604   0.0000       2.356061        64.1117 
 605   0.0000       2.358140        64.1682 
 606   0.0000       2.362464        64.2859 
 607   0.0000       2.362587        64.2893 
 608   0.0000       2.365870        64.3786 
 609   0.0000       2.368083        64.4388 
 610   0.0000       2.380534        64.7776 
 611   0.0000       2.385827        64.9216 
 612   0.0000       2.394710        65.1634 
 613   0.0000       2.424657        65.9783 
 614   0.0000       2.431318        66.1595 
 615   0.0000       2.432471        66.1909 
 616   0.0000       2.442885        66.4743 
 617   0.0000       2.448074        66.6155 
 618   0.0000       2.464212        67.0546 
 619   0.0000       2.470536        67.2267 
 620   0.0000       2.479941        67.4826 
 621   0.0000       2.490596        67.7726 
 622   0.0000       2.498952        67.9999 
 623   0.0000       2.507604        68.2354 
 624   0.0000       2.515585        68.4525 
 625   0.0000       2.519413        68.5567 
 626   0.0000       2.529970        68.8440 
 627   0.0000       2.551193        69.4215 
 628   0.0000       2.551297        69.4243 
 629   0.0000       2.556676        69.5707 
 630   0.0000       2.572789        70.0092 
 631   0.0000       2.584222        70.3203 
 632   0.0000       2.586623        70.3856 
 633   0.0000       2.607852        70.9633 
 634   0.0000       2.610750        71.0421 
 635   0.0000       2.622914        71.3731 
 636   0.0000       2.626197        71.4625 
 637   0.0000       2.630279        71.5735 
 638   0.0000       2.633351        71.6571 
 639   0.0000       2.643402        71.9306 
 640   0.0000       2.648593        72.0719 
 641   0.0000       2.654178        72.2239 
 642   0.0000       2.665665        72.5364 
 643   0.0000       2.670605        72.6708 
 644   0.0000       2.678826        72.8946 
 645   0.0000       2.682495        72.9944 
 646   0.0000       2.684407        73.0464 
 647   0.0000       2.688339        73.1534 
 648   0.0000       2.695029        73.3355 
 649   0.0000       2.699761        73.4642 
 650   0.0000       2.701424        73.5095 
 651   0.0000       2.715077        73.8810 
 652   0.0000       2.717650        73.9510 
 653   0.0000       2.730525        74.3014 
 654   0.0000       2.734735        74.4159 
 655   0.0000       2.742644        74.6311 
 656   0.0000       2.743867        74.6644 
 657   0.0000       2.747827        74.7722 
 658   0.0000       2.748073        74.7789 
 659   0.0000       2.755466        74.9800 
 660   0.0000       2.758810        75.0710 
 661   0.0000       2.769465        75.3610 
 662   0.0000       2.771088        75.4051 
 663   0.0000       2.775843        75.5345 
 664   0.0000       2.782268        75.7094 
 665   0.0000       2.785913        75.8086 
 666   0.0000       2.789917        75.9175 
 667   0.0000       2.796117        76.0862 
 668   0.0000       2.800710        76.2112 
 669   0.0000       2.807143        76.3862 
 670   0.0000       2.812585        76.5343 
 671   0.0000       2.817988        76.6813 
 672   0.0000       2.821827        76.7858 
 673   0.0000       2.823334        76.8268 
 674   0.0000       2.832336        77.0718 
 675   0.0000       2.838695        77.2448 
 676   0.0000       2.843629        77.3791 
 677   0.0000       2.848106        77.5009 
 678   0.0000       2.850882        77.5764 
 679   0.0000       2.856225        77.7218 
 680   0.0000       2.866635        78.0051 
 681   0.0000       2.875217        78.2386 
 682   0.0000       2.883235        78.4568 
 683   0.0000       2.891900        78.6926 
 684   0.0000       2.894139        78.7535 
 685   0.0000       2.896931        78.8295 
 686   0.0000       2.900052        78.9144 
 687   0.0000       2.904879        79.0458 
 688   0.0000       2.906293        79.0842 
 689   0.0000       2.914290        79.3019 
 690   0.0000       2.915391        79.3318 
 691   0.0000       2.918778        79.4240 
 692   0.0000       2.928680        79.6934 
 693   0.0000       2.931164        79.7610 
 694   0.0000       2.937894        79.9442 
 695   0.0000       2.945861        80.1610 
 696   0.0000       2.953345        80.3646 
 697   0.0000       2.956389        80.4474 
 698   0.0000       2.962139        80.6039 
 699   0.0000       2.962284        80.6078 
 700   0.0000       2.967413        80.7474 
 701   0.0000       2.970217        80.8237 
 702   0.0000       2.991182        81.3942 
 703   0.0000       2.994510        81.4848 
 704   0.0000       2.997724        81.5722 
 705   0.0000       2.999429        81.6186 
 706   0.0000       3.003324        81.7246 
 707   0.0000       3.010461        81.9188 
 708   0.0000       3.015881        82.0663 
 709   0.0000       3.022123        82.2361 
 710   0.0000       3.023256        82.2670 
 711   0.0000       3.028085        82.3984 
 712   0.0000       3.047505        82.9268 
 713   0.0000       3.048046        82.9415 
 714   0.0000       3.051954        83.0479 
 715   0.0000       3.056105        83.1608 
 716   0.0000       3.061070        83.2960 
[...]
 154   8.764     141.5   0.019846   0.020676  10.239039   9.547053     0.12 (  68->  86)    0.05 (  65->  89)    0.03 (  65->  93)
 155   8.769     141.4   0.013718   0.010902  -7.515947  -7.049536     0.17 (  70->  79)    0.05 (  68->  86)    0.04 (  71->  79)
 156   8.782     141.2   0.055938   0.052029  -4.359628  -5.391677     0.06 (  67->  84)    0.06 (  62->  84)    0.06 (  70-> 101)
 157   8.795     141.0   0.032708   0.032239  35.588009  34.056187     0.08 (  65->  89)    0.05 (  65->  95)    0.04 (  68->  99)
 158   8.802     140.9   0.039870   0.037267  16.290560  16.902105     0.13 (  70->  79)    0.06 (  72-> 105)    0.04 (  68->  86)
 159   8.825     140.5   0.092758   0.085253  15.016543  14.481252     0.06 (  70->  79)    0.04 (  65->  89)    0.04 (  60->  75)
 160   8.826     140.5   0.033779   0.029463  -67.720545  -64.387440     0.13 (  70->  79)    0.06 (  72-> 105)    0.03 (  46->  73)
 161   8.844     140.2   0.024789   0.020626  20.409718  17.894884     0.05 (  63->  79)    0.04 (  58->  76)    0.04 (  52->  76)
 162   8.847     140.1   0.027188   0.025572   0.662716   0.792744     0.22 (  68->  99)    0.14 (  68-> 100)    0.05 (  68->  87)
 163   8.856     140.0   0.006461   0.005474  -3.599442  -3.548739     0.44 (  66->  94)    0.11 (  66->  91)    0.10 (  66->  86)
 164   8.860     139.9   0.013940   0.012347   7.017544   5.964491     0.08 (  63->  79)    0.07 (  53->  75)    0.04 (  53->  76)
 165   8.885     139.5   0.095241   0.089022  -20.670437  -20.977166     0.06 (  58->  78)    0.05 (  62->  81)    0.05 (  67->  82)
 166   8.898     139.3   0.011425   0.008512  -15.679326  -15.310329     0.05 (  70-> 100)    0.04 (  70->  95)    0.03 (  69->  99)
 167   8.906     139.2   0.022927   0.019488  48.788791  47.402769     0.04 (  68->  87)    0.02 (  69->  90)    0.02 (  70->  79)
 168   8.928     138.9   0.096015   0.086430  98.419798  91.529229     0.07 (  67->  75)    0.05 (  60->  76)    0.04 (  64->  75)
 169   8.936     138.7   0.019717   0.015607  -23.128678  -20.438212     0.06 (  58->  78)    0.03 (  65->  93)    0.02 (  56->  78)
 170   8.966     138.3   0.046889   0.042488  10.041789  10.032862     0.14 (  61->  79)    0.10 (  69->  79)    0.06 (  70->  79)
 171   8.971     138.2   0.031552   0.028778  25.637879  24.410844     0.06 (  66->  76)    0.03 (  61->  80)    0.03 (  72->  87)
 172   8.992     137.9   0.037026   0.029804  -118.362433  -107.629419     0.15 (  66->  76)    0.06 (  66->  75)    0.04 (  66->  85)
 173   9.005     137.7   0.003491   0.002959  -20.792478  -20.792989     0.05 (  60->  76)    0.04 (  45->  74)    0.04 (  68->  86)
 174   9.016     137.5   0.018389   0.016833  -4.335066  -4.515072     0.10 (  61->  79)    0.10 (  66->  76)    0.05 (  66->  85)
 175   9.023     137.4   0.012000   0.010368  -12.833156  -11.836372     0.05 (  71-> 103)    0.04 (  67->  83)    0.02 (  72-> 108)
 176   9.025     137.4   0.002577   0.002204  -9.259772  -8.454309     0.17 (  63->  85)    0.10 (  68->  76)    0.08 (  65->  85)
 177   9.043     137.1   0.006354   0.006751  14.619813  15.613796     0.09 (  66->  90)    0.07 (  54->  73)    0.06 (  66->  91)
 178   9.043     137.1   0.009656   0.008488  -0.667318   0.030868     0.14 (  54->  73)    0.11 (  58->  73)    0.05 (  66->  90)
 179   9.051     137.0   0.021183   0.018652  -21.575093  -19.234957     0.08 (  64->  89)    0.06 (  67->  89)    0.04 (  67->  88)
 180   9.061     136.8   0.004569   0.004152  -2.832235  -6.391166     0.09 (  56->  78)    0.06 (  46->  74)    0.05 (  66->  90)
 181   9.063     136.8   0.016252   0.014573  19.623748  17.342661     0.12 (  61->  76)    0.06 (  61->  74)    0.04 (  61->  75)
 182   9.090     136.4   0.017430   0.014883  -24.634701  -23.874972     0.06 (  56->  78)    0.03 (  66->  90)    0.02 (  65->  93)
 183   9.102     136.2   0.019888   0.017608  27.808902  25.807450     0.05 (  61->  76)    0.03 (  70->  96)    0.03 (  61->  74)
 184   9.114     136.0   0.033018   0.029217  45.385647  45.139215     0.04 (  71-> 106)    0.03 (  59->  77)    0.03 (  72-> 106)
 185   9.121     135.9   0.009444   0.009078  -24.910647  -20.808641     0.04 (  65->  96)    0.04 (  61->  76)    0.03 (  72-> 106)
 186   9.150     135.5   0.023048   0.021272   7.889049   7.259546     0.02 (  69->  89)    0.02 (  65->  96)    0.02 (  63->  87)
 187   9.164     135.3   0.015547   0.013872  -26.444872  -24.638104     0.03 (  71->  82)    0.03 (  58->  76)    0.03 (  67->  85)
 188   9.167     135.2   0.002814   0.002513   4.518578   3.953724     0.24 (  66->  94)    0.11 (  66->  86)    0.10 (  66->  92)
 189   9.179     135.1   0.018552   0.017142  -58.258812  -56.607178     0.14 (  65->  96)    0.05 (  63->  76)    0.03 (  68->  96)
 190   9.191     134.9   0.009834   0.008995  22.367377  22.148559     0.03 (  70-> 105)    0.03 (  69->  89)    0.03 (  68->  78)
 191   9.211     134.6   0.022561   0.018841  -23.735600  -20.787609     0.06 (  58->  73)    0.03 (  59->  77)    0.03 (  70-> 105)
 192   9.216     134.5   0.009924   0.008330  -0.117109  -0.194831     0.30 (  58->  73)    0.05 (  56->  78)    0.05 (  38->  73)
 193   9.222     134.4   0.089341   0.076661  -75.546363  -75.109916     0.10 (  59->  77)    0.06 (  61->  86)    0.03 (  61->  79)
 194   9.234     134.3   0.050742   0.044201  33.320508  32.850393     0.05 (  61->  86)    0.02 (  53->  77)    0.02 (  61->  76)
 195   9.250     134.0   0.006725   0.006337   3.388184   2.967601     0.12 (  59->  77)    0.06 (  63->  87)    0.06 (  63->  86)
 196   9.270     133.7   0.070525   0.055466  20.447903  18.102364     0.05 (  53->  77)    0.05 (  61->  87)    0.04 (  62->  80)
 197   9.273     133.7   0.011577   0.010362  -4.825347  -5.151719     0.08 (  68->  78)    0.08 (  65->  96)    0.07 (  59->  74)
 198   9.287     133.5   0.009233   0.008880  -2.600020  -2.890238     0.06 (  54->  78)    0.03 (  52->  78)    0.03 (  58->  74)
 199   9.291     133.4   0.031384   0.027572  32.803387  30.631142     0.10 (  57->  73)    0.03 (  72->  84)    0.03 (  71->  85)
 200   9.302     133.3   0.007066   0.006310  19.527937  18.456816     0.13 (  57->  73)    0.04 (  59->  74)    0.04 (  58->  73)
 201   9.307     133.2   0.010299   0.009032  -6.677963  -6.569590     0.04 (  72->  84)    0.03 (  67->  88)    0.03 (  72->  83)
 202   9.322     133.0   0.002850   0.001990  14.316185  12.177868     0.10 (  52->  78)    0.07 (  56->  80)    0.05 (  58->  73)
 203   9.327     132.9   0.006284   0.005206  -10.521953  -9.240573     0.08 (  61->  86)    0.04 (  70-> 103)    0.03 (  66->  92)
 204   9.329     132.9   0.013522   0.012498  17.006625  16.238944     0.07 (  70-> 103)    0.03 (  61->  86)    0.03 (  52->  78)
 205   9.343     132.7   0.041823   0.037642  -35.748897  -34.584954     0.04 (  61->  86)    0.04 (  53->  77)    0.04 (  65->  92)
 206   9.355     132.5   0.428804   0.367250   2.487066  -1.736453     0.27 (  53->  77)    0.07 (  59->  74)    0.04 (  68->  94)
 207   9.356     132.5   0.015787   0.014167  -6.406843  -6.192185     0.04 (  71-> 100)    0.03 (  72-> 102)    0.03 (  66->  92)
 208   9.365     132.4   0.043234   0.037252  13.313112  12.182909     0.35 (  59->  74)    0.09 (  57->  73)    0.04 (  53->  77)
 209   9.371     132.3   0.002740   0.002361  -13.111874  -11.475384     0.04 (  70-> 103)    0.03 (  72-> 104)    0.03 (  69-> 102)
 210   9.389     132.1   0.006712   0.005376  19.920475  18.936306     0.08 (  59->  77)    0.06 (  68->  94)    0.04 (  68->  78)
 211   9.393     132.0   0.017805   0.014104  -28.792851  -26.246736     0.08 (  59->  77)    0.05 (  68->  94)    0.05 (  53->  77)
 212   9.397     131.9   0.006551   0.005123  19.126185  16.967954     0.04 (  68->  78)    0.04 (  70-> 105)    0.04 (  72-> 105)
 213   9.411     131.7   0.000975   0.001044   3.652334   3.225835     0.17 (  68->  78)    0.04 (  59->  77)    0.04 (  63->  96)
 214   9.416     131.7   0.002285   0.002057   3.469541   3.092668     0.13 (  54->  73)    0.08 (  68->  78)    0.08 (  58->  73)
 215   9.429     131.5   0.024555   0.021724  -0.977482  -0.077287     0.12 (  71->  85)    0.06 (  68->  78)    0.06 (  72->  85)
 216   9.444     131.3   0.021366   0.019004  -15.073975  -14.309327     0.04 (  56->  73)    0.04 (  70-> 105)    0.03 (  64->  89)
 217   9.451     131.2   0.009425   0.008101   4.573288   3.602118     0.10 (  56->  73)    0.03 (  60->  80)    0.02 (  57->  78)
 218   9.457     131.1   0.034283   0.028446  21.509095  20.256652     0.04 (  71->  84)    0.04 (  70-> 103)    0.03 (  70-> 108)
 219   9.470     130.9   0.005216   0.004788  -4.186444  -3.552369     0.45 (  56->  73)    0.03 (  55->  73)    0.02 (  58->  73)
 220   9.492     130.6   0.028254   0.023987  15.378251  14.321704     0.04 (  67->  88)    0.03 (  72-> 110)    0.03 (  56->  73)
 221   9.506     130.4   0.102302   0.087046  -44.753030  -42.810275     0.06 (  46->  74)    0.05 (  61->  79)    0.05 (  55->  79)
 222   9.521     130.2   0.087408   0.070722  11.042355  10.582760     0.17 (  55->  79)    0.13 (  61->  79)    0.05 (  57->  73)
 223   9.537     130.0   0.003778   0.003445   5.210435   4.927136     0.03 (  61->  85)    0.03 (  70->  85)    0.03 (  68->  92)
 224   9.544     129.9   0.018166   0.015337  -5.374464  -6.241540     0.05 (  69->  82)    0.04 (  71->  82)    0.02 (  71->  85)
 225   9.550     129.8   0.015452   0.011809  -7.488029  -6.447436     0.08 (  70->  85)    0.05 (  67->  77)    0.04 (  70->  96)
 226   9.555     129.8   0.016017   0.014284   5.952274   5.953761     0.10 (  67->  77)    0.08 (  72->  86)    0.08 (  71->  86)
 227   9.576     129.5   0.016908   0.016218  22.394864  21.941318     0.04 (  70->  85)    0.04 (  57->  73)    0.02 (  72->  86)
 228   9.590     129.3   0.006341   0.005033  -8.017171  -7.118634     0.12 (  70->  85)    0.05 (  60->  77)    0.05 (  67->  77)
 229   9.603     129.1   0.012488   0.010477   3.271181   1.703988     0.04 (  62->  75)    0.03 (  60->  75)    0.03 (  64->  82)
 230   9.622     128.9   0.026718   0.024809  21.221140  22.523674     0.09 (  63->  86)    0.08 (  68->  86)    0.05 (  65->  86)
 231   9.633     128.7   0.043893   0.037778  22.991158  19.943555     0.05 (  63->  86)    0.04 (  65->  86)    0.04 (  68->  86)
 232   9.635     128.7   0.005192   0.005009  -10.105055  -9.949776     0.03 (  62->  75)    0.03 (  56->  76)    0.03 (  56->  74)
 233   9.644     128.6   0.016494   0.014198  -11.860668  -10.960213     0.07 (  62->  75)    0.04 (  60->  76)    0.03 (  65->  82)
 234   9.655     128.4   0.024008   0.020749  -15.851874  -17.135265     0.04 (  69->  97)    0.03 (  72->  97)    0.03 (  69->  92)
 235   9.664     128.3   0.031389   0.027384  32.738550  29.642085     0.05 (  65->  79)    0.03 (  67->  79)    0.02 (  56->  74)
 236   9.673     128.2   0.012238   0.011049  29.655510  29.380483     0.03 (  64->  92)    0.03 (  64->  81)    0.03 (  62->  75)
 237   9.679     128.1   0.016268   0.011617  -10.051834  -8.970981     0.05 (  67->  79)    0.05 (  69->  79)    0.05 (  60->  79)
 238   9.694     127.9   0.035472   0.028178  -9.685957  -6.655593     0.05 (  64->  79)    0.05 (  67->  79)    0.04 (  69->  79)
 239   9.696     127.9   0.010232   0.008690  24.140020  23.118601     0.04 (  67->  93)    0.03 (  62->  88)    0.02 (  65->  79)
 240   9.705     127.8   0.010239   0.009632  -30.145391  -28.181635     0.07 (  64->  95)    0.03 (  67->  95)    0.02 (  64->  82)
 241   9.718     127.6   0.043781   0.037645  -26.002966  -23.078903     0.19 (  65->  79)    0.05 (  63->  79)    0.05 (  62->  79)
 242   9.734     127.4   0.016644   0.014559  19.043017  16.317440     0.05 (  67->  79)    0.05 (  53->  79)    0.03 (  45->  74)
 243   9.740     127.3   0.011044   0.009529   0.052631   0.655301     0.14 (  65->  79)    0.05 (  62->  79)    0.03 (  63->  79)
 244   9.742     127.3   0.021426   0.016195  -13.278086  -11.855364     0.09 (  64->  95)    0.04 (  67->  95)    0.03 (  56->  74)
 245   9.758     127.1   0.010172   0.008914  -29.022314  -27.751098     0.05 (  55->  74)    0.05 (  66->  78)    0.03 (  53->  79)
 246   9.768     126.9   0.002210   0.001969  -2.731078  -2.419597     0.56 (  55->  77)    0.06 (  55->  86)    0.05 (  57->  77)
 247   9.769     126.9   0.017268   0.015050  32.076936  28.672959     0.20 (  53->  79)    0.05 (  31->  73)    0.03 (  47->  75)
 248   9.773     126.9   0.058228   0.050252  27.993096  27.439254     0.04 (  53->  79)    0.03 (  49->  75)    0.03 (  61->  85)
 249   9.782     126.7   0.001639   0.001261  -9.670179  -8.079252     0.10 (  68->  80)    0.04 (  53->  79)    0.04 (  65->  79)
 250   9.790     126.6   0.072578   0.060091  -42.624128  -38.212644     0.15 (  55->  74)    0.04 (  57->  74)    0.03 (  48->  77)
 251   9.797     126.6   0.013476   0.010278   2.595976   1.127592     0.05 (  71->  86)    0.03 (  71->  87)    0.03 (  62->  82)
 252   9.806     126.4   0.020034   0.016441   3.038727   2.565992     0.17 (  66->  78)    0.11 (  55->  74)    0.02 (  60->  78)
 253   9.830     126.1   0.007453   0.005849  -7.286346  -8.340535     0.04 (  65->  82)    0.04 (  70->  86)    0.04 (  70-> 109)
 254   9.833     126.1   0.023488   0.018095   5.937995   7.302097     0.04 (  71-> 107)    0.04 (  72-> 107)    0.02 (  54->  80)
 255   9.841     126.0   0.040297   0.035992   2.599735   1.375375     0.06 (  71-> 107)    0.05 (  72-> 107)    0.03 (  64->  79)
 256   9.858     125.8   0.001611   0.001265   0.499992   1.161354     0.14 (  66->  80)    0.13 (  66->  78)    0.04 (  60->  78)
 257   9.876     125.5   0.060867   0.053645  -58.532042  -54.334273     0.06 (  67->  79)    0.05 (  64->  79)    0.04 (  71->  87)
 258   9.877     125.5   0.012437   0.012474  10.299654  10.312400     0.13 (  67->  79)    0.09 (  64->  79)    0.05 (  72-> 111)
 259   9.884     125.4   0.080832   0.069610  -43.346965  -40.005127     0.06 (  54->  80)    0.04 (  71-> 111)    0.04 (  72-> 111)
 260   9.897     125.3   0.009206   0.008150   4.209954   4.492112     0.07 (  70->  86)    0.07 (  48->  75)    0.03 (  71->  86)
 261   9.900     125.2   0.001663   0.000902  -7.981111  -6.187379     0.10 (  70->  86)    0.04 (  71->  95)    0.03 (  71->  86)
 262   9.906     125.2   0.003628   0.002802   7.533805   7.344184     0.17 (  70->  86)    0.06 (  71->  86)    0.04 (  48->  75)
 263   9.909     125.1   0.005156   0.004229  -20.455270  -19.855043     0.20 (  68-> 107)    0.06 (  44->  75)    0.05 (  47->  75)
 264   9.926     124.9   0.025249   0.022135  57.693070  56.106182     0.06 (  72-> 113)    0.05 (  72->  88)    0.05 (  70->  86)
 265   9.935     124.8   0.009285   0.008745  -4.672724  -4.602394     0.07 (  68->  81)    0.06 (  63->  96)    0.05 (  68->  78)
 266   9.946     124.7   0.005910   0.006051  -11.139780  -11.756505     0.04 (  66->  80)    0.03 (  64->  96)    0.03 (  67->  79)
 267   9.947     124.6   0.018467   0.014704  40.441165  37.381412     0.10 (  66->  80)    0.05 (  70->  86)    0.04 (  66->  78)
 268   9.968     124.4   0.012587   0.011426   3.162941   3.952324     0.03 (  60->  83)    0.02 (  68-> 107)    0.02 (  65->  81)
 269   9.974     124.3   0.007877   0.009637  -23.622727  -26.203403     0.08 (  66->  80)    0.06 (  66->  78)    0.05 (  70-> 109)
 270   9.980     124.2   0.002078   0.001618  -1.781295  -1.647504     0.18 (  68-> 107)    0.10 (  53->  79)    0.06 (  47->  75)
 271   9.988     124.1   0.021507   0.020176  40.929575  40.416526     0.05 (  52->  73)    0.04 (  51->  73)    0.03 (  49->  77)
 272   9.995     124.0   0.000781   0.000638   1.483283   0.496243     0.11 (  52->  73)    0.04 (  51->  73)    0.03 (  44->  74)

sTD-DFT done

Total run time:       31.199 sec

           *** ORCA-CIS/TD-DFT FINISHED WITHOUT ERROR ***


-------------------------------------------------------------------------------
                          DFT DISPERSION CORRECTION                            
                                                                               
                              DFTD3 V3.1  Rev 1                                
                              USING zero damping                               
-------------------------------------------------------------------------------
The omegaB97X-D3 functional is recognized. Fit by Chai et al.
Active option DFTDOPT                   ...         3   

molecular C6(AA) [au] = 38552.640075 


            DFT-D V3
 parameters
 s6 scaling factor         :     1.0000 
 rs6 scaling factor        :     1.2810 
 s8 scaling factor         :     1.0000 
 rs8 scaling factor        :     1.0940 
 Damping factor alpha6     :    14.0000 
 Damping factor alpha8     :    16.0000 
 ad hoc parameters k1-k3   :    16.0000     1.3333    -4.0000 

 Edisp/kcal,au: -13.113855081656  -0.020898256082 
 E6   /kcal   :  -6.052134112 
 E8   /kcal   :  -7.061720969 
 % E8         :  53.849313764 

-------------------------   ----------------
Dispersion correction           -0.020898256
-------------------------   ----------------


-------------------------   --------------------
FINAL SINGLE POINT ENERGY     -2390.796211154315
-------------------------   --------------------


                            ***************************************
                            *     ORCA property calculations      *
                            ***************************************

                                    ---------------------
                                    Active property flags
                                    ---------------------
   (+) Dipole Moment
   (+) Quadrupole Moment


------------------------------------------------------------------------------
                       ORCA ELECTRIC PROPERTIES CALCULATION
------------------------------------------------------------------------------

Dipole Moment Calculation                       ... on
Quadrupole Moment Calculation                   ... on
Polarizability Calculation                      ... off
GBWName                                         ... total_job2.gbw
Electron density file                           ... total_job2.scfp.tmp

-------------
DIPOLE MOMENT
-------------
                                X             Y             Z
Electronic contribution:     22.28375      10.80710       4.09237
Nuclear contribution   :    -23.31225     -10.54064      -4.16382
                        -----------------------------------------
Total Dipole Moment    :     -1.02850       0.26645      -0.07146
                        -----------------------------------------
Magnitude (a.u.)       :      1.06485
Magnitude (Debye)      :      2.70664


------------------------
QUADRUPOLE MOMENT (A.U.)
------------------------

                XX           YY           ZZ           XY           XZ           YZ
  NUC     19857.14068   1857.32256   2187.87072   2008.05733   2647.92555   1374.60778
  EL     -19970.82604  -2000.55904  -2331.93998  -2005.03045  -2640.24516  -1365.18077
  TOT      -113.68536   -143.23647   -144.06927      3.02688      7.68038      9.42700

--------------------------------------------------------------------------
[[4486,1],4]: A high-performance Open MPI point-to-point messaging module
was unable to find any relevant network interfaces:

Module: OpenFabrics (openib)
  Host: cx1-105-19-2

Another transport will be used instead, although this may result in
lower performance.
--------------------------------------------------------------------------

Timings for individual modules:

Sum of individual times         ...      136.861 sec (=   2.281 min)
GTO integral calculation        ...        4.842 sec (=   0.081 min)   3.5 %
SCF iterations                  ...       99.337 sec (=   1.656 min)  72.6 %
CIS module                      ...       32.681 sec (=   0.545 min)  23.9 %



                             ****ORCA TERMINATED NORMALLY****
TOTAL RUN TIME: 0 days 0 hours 9 minutes 0 seconds 383 msec
