
                                 *****************
                                 * O   R   C   A *
                                 *****************

           --- An Ab Initio, DFT and Semiempirical electronic structure package ---

                  #######################################################
                  #                        -***-                        #
                  #  Department of molecular theory and spectroscopy    #
                  #              Directorship: Frank Neese              #
                  # Max Planck Institute for Chemical Energy Conversion #
                  #                  D-45470 Muelheim/Ruhr              #
                  #                       Germany                       #
                  #                                                     #
                  #                  All rights reserved                #
                  #                        -***-                        #
                  #######################################################


                         Program Version 4.0.0 -  RELEASE  -


 With contributions from (in alphabetic order):
   Daniel Aravena         : Magnetic Properties
   Michael Atanasov       : Ab Initio Ligand Field Theory
   Ute Becker             : Parallelization
   Martin Brehm           : Molecular dynamics
   Dmytro Bykov           : SCF Hessian
   Vijay G. Chilkuri      : MRCI spin determinant printing
   Dipayan Datta          : RHF DLPNO-CCSD density
   Achintya Kumar Dutta   : EOM-CC, STEOM-CC
   Dmitry Ganyushin       : Spin-Orbit,Spin-Spin,Magnetic field MRCI
   Yang Guo               : DLPNO-NEVPT2, CIM, IAO-localization
   Andreas Hansen         : Spin unrestricted coupled pair/coupled cluster methods
   Lee Huntington         : MR-EOM, pCC
   Robert Izsak           : Overlap fitted RIJCOSX, COSX-SCS-MP3, EOM
   Christian Kollmar      : KDIIS, OOCD, Brueckner-CCSD(T), CCSD density
   Simone Kossmann        : Meta GGA functionals, TD-DFT gradient, OOMP2, MP2 Hessian
   Martin Krupicka        : AUTO-CI
   Dagmar Lenk            : GEPOL surface
   Dimitrios Liakos       : Extrapolation schemes; parallel MDCI
   Dimitrios Manganas     : ROCIS; embedding schemes
   Dimitrios Pantazis     : SARC Basis sets
   Taras Petrenko         : DFT Hessian,TD-DFT gradient, ASA, ECA, R-Raman, ABS, FL, XAS/XES, NRVS
   Peter Pinski           : DLPNO-MP2
   Christoph Reimann      : Effective Core Potentials
   Marius Retegan         : Local ZFS, SOC
   Christoph Riplinger    : Optimizer, TS searches, QM/MM, DLPNO-CCSD(T), (RO)-DLPNO pert. Triples
   Tobias Risthaus        : Range-separated hybrids, TD-DFT gradient, RPA, STAB
   Michael Roemelt        : Restricted open shell CIS
   Masaaki Saitow         : Open-shell DLPNO
   Barbara Sandhoefer     : DKH picture change effects
   Kantharuban Sivalingam : CASSCF convergence, NEVPT2, FIC-MRCI
   Georgi Stoychev        : AutoAux
   Boris Wezisla          : Elementary symmetry handling
   Frank Wennmohs         : Technical directorship


 We gratefully acknowledge several colleagues who have allowed us to
 interface, adapt or use parts of their codes:
   Stefan Grimme, W. Hujo, H. Kruse,             : VdW corrections, initial TS optimization,
                  C. Bannwarth                     DFT functionals, gCP, sTDA/sTD-DF
   Ed Valeev                                     : LibInt (2-el integral package), F12 methods
   Garnet Chan, S. Sharma, J. Yang, R. Olivares  : DMRG
   Ulf Ekstrom                                   : XCFun DFT Library
   Mihaly Kallay                                 : mrcc  (arbitrary order and MRCC methods)
   Jiri Pittner, Ondrej Demel                    : Mk-CCSD
   Frank Weinhold                                : gennbo (NPA and NBO analysis)
   Christopher J. Cramer and Donald G. Truhlar   : smd solvation model


 Your calculation uses the libint2 library for the computation of 2-el integrals
 For citations please refer to: http://libint.valeyev.net

 This ORCA versions uses:
   CBLAS   interface :  Fast vector & matrix operations
   LAPACKE interface :  Fast linear algebra routines
   SCALAPACK package :  Parallel linear algebra routines


Your calculation utilizes the atom-pairwise dispersion correction
with the zero-damping scheme (D30)
Cite in your paper:
S.Grimme, J.Antony, S.Ehrlich and H.Krieg, J.Chem.Phys., 132, (2010), 154104 
   

XCFun DFT library Copyright 2009-2010 Ulf Ekstrom and contributors.
See http://admol.org/xcfun for more information. This is free soft-
ware; see the source code for copying conditions. There is ABSOLUTELY
NO WARRANTY; not even for MERCHANTABILITY or FITNESS FOR A PARTICULAR
PURPOSE. For details see the documentation. Scientific users of this 
library should cite U. Ekstrom, L. Visscher, R. Bast, A. J. Thorvald-
sen and K. Ruud; J.Chem.Theor.Comp. 2010, DOI: 10.1021/ct100117s
XCFun Version 0.99 
Your calculation utilizes the basis: def2-TZVP
   F. Weigend and R. Ahlrichs, Phys. Chem. Chem. Phys. 7, 3297 (2005).

Your calculation utilizes the auxiliary basis: def2/J
   F. Weigend, Phys. Chem. Chem. Phys. 8, 1057 (2006).

================================================================================
                                        WARNINGS
                       Please study these warnings very carefully!
================================================================================

Warning: TCutStore was < 0. Adjusted to Thresh (uncritical)
INFO   : Checking CIS options ...

WARNING: CIS/ROCIS methods need fully converged wavefunctions
  ===> : Setting SCFConvForced true
         You can overwrite this default with %scf ConvForced false 


INFO   : the flag for use of LIBINT has been found!

Your calculation utilizes the atom-pairwise dispersion correction
with the zero-damping scheme (D30)
Cite in your paper:
S.Grimme, J.Antony, S.Ehrlich and H.Krieg, J.Chem.Phys., 132, (2010), 154104 
   

XCFun DFT library Copyright 2009-2010 Ulf Ekstrom and contributors.
See http://admol.org/xcfun for more information. This is free soft-
ware; see the source code for copying conditions. There is ABSOLUTELY
NO WARRANTY; not even for MERCHANTABILITY or FITNESS FOR A PARTICULAR
PURPOSE. For details see the documentation. Scientific users of this 
library should cite U. Ekstrom, L. Visscher, R. Bast, A. J. Thorvald-
sen and K. Ruud; J.Chem.Theor.Comp. 2010, DOI: 10.1021/ct100117s
XCFun Version 0.99 
Your calculation utilizes the basis: def2-TZVP
   F. Weigend and R. Ahlrichs, Phys. Chem. Chem. Phys. 7, 3297 (2005).

Your calculation utilizes the auxiliary basis: def2/J
   F. Weigend, Phys. Chem. Chem. Phys. 8, 1057 (2006).

================================================================================
                                        WARNINGS
                       Please study these warnings very carefully!
================================================================================

INFO   : Checking CIS options ...

INFO   : the flag for use of LIBINT has been found!

================================================================================
                                       INPUT FILE
================================================================================
NAME = total.inp
|  1> # 
|  2> !wB97X-D3 def2-TZVP def2/J RIJCOSX Grid5 FinalGrid6 TightSCF
|  3> %pal 
|  4>  nprocs 24
|  5> end
|  6> %tddft
|  7>   Mode sTDDFT
|  8>   nroots 2
|  9>   Ethresh 10.0
| 10>   maxcore 5000
| 11>   triplets true
| 12> end
| 13> * xyz 0 1 
| 14> C -6.92803581 0.46914466 -3.69643866
| 15> C -6.45553428 0.20533464 -2.41362994
| 16> C -7.31241190 -0.40985607 -1.48074325
| 17> C -8.63148247 -0.74814046 -1.89451580
| 18> C -9.11238802 -0.47703834 -3.18466644
| 19> C -8.24002929 0.13803925 -4.07877885
| 20> C -7.18343115 -0.85648706 -0.10234805
| 21> C -8.43227302 -1.45957425 0.23386960
| 22> N -9.28913107 -1.36826572 -0.84653021
| 23> C -8.68545399 -2.05830413 1.47665022
| 24> C -7.64795758 -2.06685499 2.40666404
| 25> C -6.41016040 -1.48525814 2.10648914
| 26> C -6.14827645 -0.85682497 0.87338632
| 27> H -5.62934517 -1.49680940 2.86363251
| 28> H -10.23470402 -1.72940037 -0.87595206
| 29> H -7.79820500 -2.52638054 3.37929327
| 30> H -5.43972540 0.47634535 -2.14152537
| 31> H -10.12564468 -0.74238502 -3.47418627
| 32> H -8.57660281 0.36374496 -5.08716980
| 33> H -6.27103323 0.94487171 -4.41927605
| 34> S -0.13375600 -0.17855521 2.03404561
| 35> C 1.22918489 0.85077575 1.54169181
| 36> N 0.89060953 1.77047473 0.64681279
| 37> N -0.42513166 1.73590838 0.29033053
| 38> C -1.11493680 0.78776119 0.90980059
| 39> C -2.52693666 0.53630044 0.71123427
| 40> N -3.30169038 1.23215975 -0.10984492
| 41> N -4.59802076 0.80240580 -0.12442807
| 42> C -4.84032626 -0.22623297 0.67345371
| 43> S -3.38816339 -0.75475110 1.56530912
| 44> C 2.58112141 0.73980051 2.06272722
| 45> C 2.94701087 -0.17447137 2.99546526
| 46> S 4.56685823 -0.36673921 3.69504278
| 47> C 5.63260544 0.23014714 2.39178303
| 48> C 5.28127398 1.15057793 1.45923803
| 49> S 3.69783480 1.96603621 1.35572722
| 50> S 7.25545608 -0.50097670 2.26176581
| 51> C 7.75146900 0.44349172 0.82520587
| 52> S 6.48384129 1.54069548 0.20154865
| 53> C 8.97970096 0.33413343 0.25758722
| 54> S 10.24631925 -0.76301037 0.88229692
| 55> C 11.44752645 -0.37467497 -0.37940870
| 56> C 11.09890830 0.54764907 -1.31115799
| 57> S 9.47551741 1.27694987 -1.17871881
| 58> S 13.04275777 -1.17132710 -0.27753078
| 59> C 14.12802711 0.09039423 -0.93323848
| 60> C 13.78339069 1.00195855 -1.85432420
| 61> S 12.16921946 1.13988930 -2.61238783
| 62> H 14.50590819 1.74405153 -2.18894070
| 63> H 2.20306944 -0.87277006 3.37922861
| 64> H -9.64951515 -2.50657003 1.69969194
| 65> H 15.13249223 0.08651696 -0.51403089
| 66> *
| 67> $new_job
| 68> # 
| 69> !wB97X-D3 def2-TZVP def2/J RIJCOSX Grid5 FinalGrid6 TightSCF
| 70> %pal 
| 71>  nprocs 24
| 72> end
| 73> %elprop
| 74>    dipole     true
| 75>    quadrupole true
| 76> end
| 77> %tddft
| 78>   Mode sTDDFT
| 79>   nroots 2
| 80>   Ethresh 10.0
| 81>   maxcore 5000
| 82> end
| 83> * xyz 0 1 
| 84> C -6.92803581 0.46914466 -3.69643866
| 85> C -6.45553428 0.20533464 -2.41362994
| 86> C -7.31241190 -0.40985607 -1.48074325
| 87> C -8.63148247 -0.74814046 -1.89451580
| 88> C -9.11238802 -0.47703834 -3.18466644
| 89> C -8.24002929 0.13803925 -4.07877885
| 90> C -7.18343115 -0.85648706 -0.10234805
| 91> C -8.43227302 -1.45957425 0.23386960
| 92> N -9.28913107 -1.36826572 -0.84653021
| 93> C -8.68545399 -2.05830413 1.47665022
| 94> C -7.64795758 -2.06685499 2.40666404
| 95> C -6.41016040 -1.48525814 2.10648914
| 96> C -6.14827645 -0.85682497 0.87338632
| 97> H -5.62934517 -1.49680940 2.86363251
| 98> H -10.23470402 -1.72940037 -0.87595206
| 99> H -7.79820500 -2.52638054 3.37929327
|100> H -5.43972540 0.47634535 -2.14152537
|101> H -10.12564468 -0.74238502 -3.47418627
|102> H -8.57660281 0.36374496 -5.08716980
|103> H -6.27103323 0.94487171 -4.41927605
|104> S -0.13375600 -0.17855521 2.03404561
|105> C 1.22918489 0.85077575 1.54169181
|106> N 0.89060953 1.77047473 0.64681279
|107> N -0.42513166 1.73590838 0.29033053
|108> C -1.11493680 0.78776119 0.90980059
|109> C -2.52693666 0.53630044 0.71123427
|110> N -3.30169038 1.23215975 -0.10984492
|111> N -4.59802076 0.80240580 -0.12442807
|112> C -4.84032626 -0.22623297 0.67345371
|113> S -3.38816339 -0.75475110 1.56530912
|114> C 2.58112141 0.73980051 2.06272722
|115> C 2.94701087 -0.17447137 2.99546526
|116> S 4.56685823 -0.36673921 3.69504278
|117> C 5.63260544 0.23014714 2.39178303
|118> C 5.28127398 1.15057793 1.45923803
|119> S 3.69783480 1.96603621 1.35572722
|120> S 7.25545608 -0.50097670 2.26176581
|121> C 7.75146900 0.44349172 0.82520587
|122> S 6.48384129 1.54069548 0.20154865
|123> C 8.97970096 0.33413343 0.25758722
|124> S 10.24631925 -0.76301037 0.88229692
|125> C 11.44752645 -0.37467497 -0.37940870
|126> C 11.09890830 0.54764907 -1.31115799
|127> S 9.47551741 1.27694987 -1.17871881
|128> S 13.04275777 -1.17132710 -0.27753078
|129> C 14.12802711 0.09039423 -0.93323848
|130> C 13.78339069 1.00195855 -1.85432420
|131> S 12.16921946 1.13988930 -2.61238783
|132> H 14.50590819 1.74405153 -2.18894070
|133> H 2.20306944 -0.87277006 3.37922861
|134> H -9.64951515 -2.50657003 1.69969194
|135> H 15.13249223 0.08651696 -0.51403089
|136> *
|137> 
|138>                          ****END OF INPUT****
================================================================================


                 $$$$$$$$$$$$$$$$$$$$$$$$$$$$$$$$$$$$$$$$$$$$$$ 
                 $ THERE ARE  2 JOBS TO BE PROCESSED THIS RUN $
                 $$$$$$$$$$$$$$$$$$$$$$$$$$$$$$$$$$$$$$$$$$$$$$ 




                 $$$$$$$$$$$$$$$$  JOB NUMBER  1 $$$$$$$$$$$$$$


                       ****************************
                       * Single Point Calculation *
                       ****************************

---------------------------------
CARTESIAN COORDINATES (ANGSTROEM)
---------------------------------
  C     -6.928036    0.469145   -3.696439
  C     -6.455534    0.205335   -2.413630
  C     -7.312412   -0.409856   -1.480743
  C     -8.631482   -0.748140   -1.894516
  C     -9.112388   -0.477038   -3.184666
  C     -8.240029    0.138039   -4.078779
  C     -7.183431   -0.856487   -0.102348
  C     -8.432273   -1.459574    0.233870
  N     -9.289131   -1.368266   -0.846530
  C     -8.685454   -2.058304    1.476650
  C     -7.647958   -2.066855    2.406664
  C     -6.410160   -1.485258    2.106489
  C     -6.148276   -0.856825    0.873386
  H     -5.629345   -1.496809    2.863633
  H    -10.234704   -1.729400   -0.875952
  H     -7.798205   -2.526381    3.379293
  H     -5.439725    0.476345   -2.141525
  H    -10.125645   -0.742385   -3.474186
  H     -8.576603    0.363745   -5.087170
  H     -6.271033    0.944872   -4.419276
  S     -0.133756   -0.178555    2.034046
  C      1.229185    0.850776    1.541692
  N      0.890610    1.770475    0.646813
  N     -0.425132    1.735908    0.290331
  C     -1.114937    0.787761    0.909801
  C     -2.526937    0.536300    0.711234
  N     -3.301690    1.232160   -0.109845
  N     -4.598021    0.802406   -0.124428
  C     -4.840326   -0.226233    0.673454
  S     -3.388163   -0.754751    1.565309
  C      2.581121    0.739801    2.062727
  C      2.947011   -0.174471    2.995465
  S      4.566858   -0.366739    3.695043
  C      5.632605    0.230147    2.391783
  C      5.281274    1.150578    1.459238
  S      3.697835    1.966036    1.355727
  S      7.255456   -0.500977    2.261766
  C      7.751469    0.443492    0.825206
  S      6.483841    1.540695    0.201549
  C      8.979701    0.334133    0.257587
  S     10.246319   -0.763010    0.882297
  C     11.447526   -0.374675   -0.379409
  C     11.098908    0.547649   -1.311158
  S      9.475517    1.276950   -1.178719
  S     13.042758   -1.171327   -0.277531
  C     14.128027    0.090394   -0.933238
  C     13.783391    1.001959   -1.854324
  S     12.169219    1.139889   -2.612388
  H     14.505908    1.744052   -2.188941
  H      2.203069   -0.872770    3.379229
  H     -9.649515   -2.506570    1.699692
  H     15.132492    0.086517   -0.514031

----------------------------
CARTESIAN COORDINATES (A.U.)
----------------------------
  NO LB      ZA    FRAG     MASS         X           Y           Z
   0 C     6.0000    0    12.011  -13.092090    0.886555   -6.985257
   1 C     6.0000    0    12.011  -12.199192    0.388026   -4.561100
   2 C     6.0000    0    12.011  -13.818456   -0.774516   -2.798199
   3 C     6.0000    0    12.011  -16.311138   -1.413781   -3.580116
   4 C     6.0000    0    12.011  -17.219918   -0.901472   -6.018147
   5 C     6.0000    0    12.011  -15.571399    0.260856   -7.707775
   6 C     6.0000    0    12.011  -13.574718   -1.618526   -0.193410
   7 C     6.0000    0    12.011  -15.934687   -2.758196    0.441949
   8 N     7.0000    0    14.007  -17.553914   -2.585647   -1.599710
   9 C     6.0000    0    12.011  -16.413129   -3.889631    2.790465
  10 C     6.0000    0    12.011  -14.452545   -3.905790    4.547936
  11 C     6.0000    0    12.011  -12.113448   -2.806731    3.980688
  12 C     6.0000    0    12.011  -11.618559   -1.619165    1.650461
  13 H     1.0000    0     1.008  -10.637921   -2.828560    5.411481
  14 H     1.0000    0     1.008  -19.340788   -3.268093   -1.655309
  15 H     1.0000    0     1.008  -14.736472   -4.774167    6.385939
  16 H     1.0000    0     1.008  -10.279591    0.900162   -4.046896
  17 H     1.0000    0     1.008  -19.134695   -1.402904   -6.565261
  18 H     1.0000    0     1.008  -16.207430    0.687378   -9.613358
  19 H     1.0000    0     1.008  -11.850535    1.785549   -8.351221
  20 S    16.0000    0    32.060   -0.252762   -0.337420    3.843789
  21 C     6.0000    0    12.011    2.322823    1.607733    2.913375
  22 N     7.0000    0    14.007    1.683008    3.345712    1.222299
  23 N     7.0000    0    14.007   -0.803382    3.280391    0.548645
  24 C     6.0000    0    12.011   -2.106925    1.488653    1.719274
  25 C     6.0000    0    12.011   -4.775218    1.013461    1.344038
  26 N     7.0000    0    14.007   -6.239291    2.328444   -0.207577
  27 N     7.0000    0    14.007   -8.689000    1.516327   -0.235135
  28 C     6.0000    0    12.011   -9.146891   -0.427518    1.272643
  29 S    16.0000    0    32.060   -6.402701   -1.426273    2.958006
  30 C     6.0000    0    12.011    4.877613    1.398020    3.897990
  31 C     6.0000    0    12.011    5.569043   -0.329703    5.660609
  32 S    16.0000    0    32.060    8.630111   -0.693037    6.982619
  33 C     6.0000    0    12.011   10.644082    0.434915    4.519815
  34 C     6.0000    0    12.011    9.980161    2.174277    2.757560
  35 S    16.0000    0    32.060    6.987895    3.715270    2.561953
  36 S    16.0000    0    32.060   13.710825   -0.946709    4.274118
  37 C     6.0000    0    12.011   14.648154    0.838078    1.559413
  38 S    16.0000    0    32.060   12.252684    2.911493    0.380872
  39 C     6.0000    0    12.011   16.969176    0.631421    0.486769
  40 S    16.0000    0    32.060   19.362737   -1.441881    1.667300
  41 C     6.0000    0    12.011   21.632690   -0.708033   -0.716979
  42 C     6.0000    0    12.011   20.973897    1.034907   -2.477730
  43 S    16.0000    0    32.060   17.906133    2.413086   -2.227456
  44 S    16.0000    0    32.060   24.647240   -2.213487   -0.524457
  45 C     6.0000    0    12.011   26.698102    0.170820   -1.763565
  46 C     6.0000    0    12.011   26.046834    1.893427   -3.504165
  47 S    16.0000    0    32.060   22.996492    2.154079   -4.936698
  48 H     1.0000    0     1.008   27.412194    3.295780   -4.136498
  49 H     1.0000    0     1.008    4.163198   -1.649296    6.385817
  50 H     1.0000    0     1.008  -18.234941   -4.736731    3.211952
  51 H     1.0000    0     1.008   28.596266    0.163493   -0.971378

--------------------------------
INTERNAL COORDINATES (ANGSTROEM)
--------------------------------
 C      0   0   0     0.000000000000     0.00000000     0.00000000
 C      1   0   0     1.392282885987     0.00000000     0.00000000
 C      2   1   0     1.408181963280   119.12105706     0.00000000
 C      3   2   1     1.423232665551   118.37259068     0.49216131
 C      4   3   2     1.403301529031   122.61435127   359.14938833
 C      5   4   3     1.392396206991   117.45147727     0.53566269
 C      3   2   1     1.454678178321   135.06550475   178.51523769
 C      7   3   2     1.427011731970   105.98684489   182.62442207
 N      8   7   3     1.381957566262   109.29896301   358.72070594
 C      8   7   3     1.402526913190   123.17293611   177.69283528
 C     10   8   7     1.393340454936   117.36457727   359.22841037
 C     11  10   8     1.400179176154   120.83803741     0.64933919
 C     12  11  10     1.408564523590   122.50396975     0.60626364
 H     12  11  10     1.087691104010   118.74868915   179.00822790
 H      9   8   7     1.012616454764   125.31929575   179.15140726
 H     11  10   8     1.086160962919   119.82139691   180.43285560
 H      2   1   3     1.085981299395   120.06729557   180.22456535
 H      5   4   3     1.086701270628   121.15140874   180.23750643
 H      6   5   4     1.086773716067   119.57326703   179.99364489
 H      1   2   3     1.086490915107   119.38858870   179.91835261
 S     14  12  11     5.712049444772   125.95234762   168.36553824
 C     21  14  12     1.777510157277   155.72538085    56.49032279
 N     22  21  14     1.327135241280   113.10770221   335.96712451
 N     23  22  21     1.363616263217   113.88301111   359.94000578
 C     24  23  22     1.326106096929   113.44787562     0.06881324
 C     25  24  23     1.447896645783   124.56824976   180.06615431
 N     26  25  24     1.326135190023   124.29925499   359.54682355
 N     27  26  25     1.365786798851   113.32904909   179.92725025
 C     28  27  26     1.324169554601   114.31030710   359.71754818
 S     26  25  24     1.771431457552   122.31524688   179.64811723
 C     22  21  14     1.453108996764   124.73898001   154.91170768
 C     31  22  21     1.356380631962   123.30012216   359.88099748
 S     32  31  22     1.774903123691   126.17471467   180.64404984
 C     33  32  31     1.786218465476   102.75302336   332.18267133
 C     34  33  32     1.356564340896   125.01344455    27.66815436
 S     35  34  33     1.784086974048   125.44126422     0.84480595
 S     34  33  32     1.784682253697   117.31009334   210.81596852
 C     37  34  33     1.789344537644    95.41229953   178.48843918
 S     35  34  33     1.783295380598   117.29691074   182.87873291
 C     38  37  34     1.357462307022   122.95616298   178.14701823
 S     40  38  37     1.788381564352   122.96869142   359.81924541
 C     41  40  38     1.784826095664    95.52302216   178.12870129
 C     42  41  40     1.356603475112   117.41917683     1.22543963
 S     43  42  41     1.784605775799   117.42800084     0.00000000
 S     42  41  40     1.786000193484   117.62934238   178.46498202
 C     45  42  41     1.788771322098   101.90972403   213.22032429
 C     46  45  42     1.340940966290   125.12485200   329.66208087
 S     43  42  41     1.785920929313   124.88097613   177.01815757
 H     47  46  45     1.088440044671   120.26794970   179.21819330
 H     32  31  22     1.090112022009   119.32581810     0.41296747
 H     10   8   7     1.086325847149   121.21747579   179.86565941
 H     46  45  42     1.088439347889   114.59545861   148.91549396

---------------------------
INTERNAL COORDINATES (A.U.)
---------------------------
 C      0   0   0     0.000000000000     0.00000000     0.00000000
 C      1   0   0     2.631033355461     0.00000000     0.00000000
 C      2   1   0     2.661078257326   119.12105706     0.00000000
 C      3   2   1     2.689519962742   118.37259068     0.49216131
 C      4   3   2     2.651855573182   122.61435127   359.14938833
 C      5   4   3     2.631247501124   117.45147727     0.53566269
 C      3   2   1     2.748943370017   135.06550475   178.51523769
 C      7   3   2     2.696661363315   105.98684489   182.62442207
 N      8   7   3     2.611521328935   109.29896301   358.72070594
 C      8   7   3     2.650391761383   123.17293611   177.69283528
 C     10   8   7     2.633031871142   117.36457727   359.22841037
 C     11  10   8     2.645955181351   120.83803741     0.64933919
 C     12  11  10     2.661801191542   122.50396975     0.60626364
 H     12  11  10     2.055438304881   118.74868915   179.00822790
 H      9   8   7     1.913567778207   125.31929575   179.15140726
 H     11  10   8     2.052546757274   119.82139691   180.43285560
 H      2   1   3     2.052207242417   120.06729557   180.22456535
 H      5   4   3     2.053567790871   121.15140874   180.23750643
 H      6   5   4     2.053704692910   119.57326703   179.99364489
 H      1   2   3     2.053170276546   119.38858870   179.91835261
 S     14  12  11    10.794209114037   125.95234762   168.36553824
 C     21  14  12     3.359007397517   155.72538085    56.49032279
 N     22  21  14     2.507922148695   113.10770221   335.96712451
 N     23  22  21     2.576861289241   113.88301111   359.94000578
 C     24  23  22     2.505977347719   113.44787562     0.06881324
 C     25  24  23     2.736128130753   124.56824976   180.06615431
 N     26  25  24     2.506032325700   124.29925499   359.54682355
 N     27  26  25     2.580963007153   113.32904909   179.92725025
 C     28  27  26     2.502317813073   114.31030710   359.71754818
 S     26  25  24     3.347520319787   122.31524688   179.64811723
 C     22  21  14     2.745978046621   124.73898001   154.91170768
 C     31  22  21     2.563187927763   123.30012216   359.88099748
 S     32  31  22     3.354080818017   126.17471467   180.64404984
 C     33  32  31     3.375463715104   102.75302336   332.18267133
 C     34  33  32     2.563535087337   125.01344455    27.66815436
 S     35  34  33     3.371435780046   125.44126422     0.84480595
 S     34  33  32     3.372560695557   117.31009334   210.81596852
 C     37  34  33     3.381371135375    95.41229953   178.48843918
 S     35  34  33     3.369939885218   117.29691074   182.87873291
 C     38  37  34     2.565231997392   122.95616298   178.14701823
 S     40  38  37     3.379551379579   122.96869142   359.81924541
 C     41  40  38     3.372832517482    95.52302216   178.12870129
 C     42  41  40     2.563609040288   117.41917683     1.22543963
 S     43  42  41     3.372416173274   117.42800084     0.00000000
 S     42  41  40     3.375051240816   117.62934238   178.46498202
 C     45  42  41     3.380287914977   101.90972403   213.22032429
 C     46  45  42     2.534011188044   125.12485200   329.66208087
 S     43  42  41     3.374901453239   124.88097613   177.01815757
 H     47  46  45     2.056853597622   120.26794970   179.21819330
 H     32  31  22     2.060013176893   119.32581810     0.41296747
 H     10   8   7     2.052858343312   121.21747579   179.86565941
 H     46  45  42     2.056852280894   114.59545861   148.91549396

---------------------
BASIS SET INFORMATION
---------------------
There are 4 groups of distinct atoms

 Group   1 Type C   : 11s6p2d1f contracted to 5s3p2d1f pattern {62111/411/11/1}
 Group   2 Type N   : 11s6p2d1f contracted to 5s3p2d1f pattern {62111/411/11/1}
 Group   3 Type H   : 5s1p contracted to 3s1p pattern {311/1}
 Group   4 Type S   : 14s9p3d1f contracted to 5s5p2d1f pattern {73211/51111/21/1}

Atom   0C    basis set group =>   1
Atom   1C    basis set group =>   1
Atom   2C    basis set group =>   1
Atom   3C    basis set group =>   1
Atom   4C    basis set group =>   1
Atom   5C    basis set group =>   1
Atom   6C    basis set group =>   1
Atom   7C    basis set group =>   1
Atom   8N    basis set group =>   2
Atom   9C    basis set group =>   1
Atom  10C    basis set group =>   1
Atom  11C    basis set group =>   1
Atom  12C    basis set group =>   1
Atom  13H    basis set group =>   3
Atom  14H    basis set group =>   3
Atom  15H    basis set group =>   3
Atom  16H    basis set group =>   3
Atom  17H    basis set group =>   3
Atom  18H    basis set group =>   3
Atom  19H    basis set group =>   3
Atom  20S    basis set group =>   4
Atom  21C    basis set group =>   1
Atom  22N    basis set group =>   2
Atom  23N    basis set group =>   2
Atom  24C    basis set group =>   1
Atom  25C    basis set group =>   1
Atom  26N    basis set group =>   2
Atom  27N    basis set group =>   2
Atom  28C    basis set group =>   1
Atom  29S    basis set group =>   4
Atom  30C    basis set group =>   1
Atom  31C    basis set group =>   1
Atom  32S    basis set group =>   4
Atom  33C    basis set group =>   1
Atom  34C    basis set group =>   1
Atom  35S    basis set group =>   4
Atom  36S    basis set group =>   4
Atom  37C    basis set group =>   1
Atom  38S    basis set group =>   4
Atom  39C    basis set group =>   1
Atom  40S    basis set group =>   4
Atom  41C    basis set group =>   1
Atom  42C    basis set group =>   1
Atom  43S    basis set group =>   4
Atom  44S    basis set group =>   4
Atom  45C    basis set group =>   1
Atom  46C    basis set group =>   1
Atom  47S    basis set group =>   4
Atom  48H    basis set group =>   3
Atom  49H    basis set group =>   3
Atom  50H    basis set group =>   3
Atom  51H    basis set group =>   3
-------------------------------
AUXILIARY BASIS SET INFORMATION
-------------------------------
There are 4 groups of distinct atoms

 Group   1 Type C   : 12s5p4d2f1g contracted to 6s4p3d1f1g pattern {711111/2111/211/2/1}
 Group   2 Type N   : 12s5p4d2f1g contracted to 6s4p3d1f1g pattern {711111/2111/211/2/1}
 Group   3 Type H   : 5s2p1d contracted to 3s1p1d pattern {311/2/1}
 Group   4 Type S   : 14s5p5d2f1g contracted to 8s4p3d1f1g pattern {71111111/2111/311/2/1}

Atom   0C    basis set group =>   1
Atom   1C    basis set group =>   1
Atom   2C    basis set group =>   1
Atom   3C    basis set group =>   1
Atom   4C    basis set group =>   1
Atom   5C    basis set group =>   1
Atom   6C    basis set group =>   1
Atom   7C    basis set group =>   1
Atom   8N    basis set group =>   2
Atom   9C    basis set group =>   1
Atom  10C    basis set group =>   1
Atom  11C    basis set group =>   1
Atom  12C    basis set group =>   1
Atom  13H    basis set group =>   3
Atom  14H    basis set group =>   3
Atom  15H    basis set group =>   3
Atom  16H    basis set group =>   3
Atom  17H    basis set group =>   3
Atom  18H    basis set group =>   3
Atom  19H    basis set group =>   3
Atom  20S    basis set group =>   4
Atom  21C    basis set group =>   1
Atom  22N    basis set group =>   2
Atom  23N    basis set group =>   2
Atom  24C    basis set group =>   1
Atom  25C    basis set group =>   1
Atom  26N    basis set group =>   2
Atom  27N    basis set group =>   2
Atom  28C    basis set group =>   1
Atom  29S    basis set group =>   4
Atom  30C    basis set group =>   1
Atom  31C    basis set group =>   1
Atom  32S    basis set group =>   4
Atom  33C    basis set group =>   1
Atom  34C    basis set group =>   1
Atom  35S    basis set group =>   4
Atom  36S    basis set group =>   4
Atom  37C    basis set group =>   1
Atom  38S    basis set group =>   4
Atom  39C    basis set group =>   1
Atom  40S    basis set group =>   4
Atom  41C    basis set group =>   1
Atom  42C    basis set group =>   1
Atom  43S    basis set group =>   4
Atom  44S    basis set group =>   4
Atom  45C    basis set group =>   1
Atom  46C    basis set group =>   1
Atom  47S    basis set group =>   4
Atom  48H    basis set group =>   3
Atom  49H    basis set group =>   3
Atom  50H    basis set group =>   3
Atom  51H    basis set group =>   3
-------------------------
ECP PARAMETER INFORMATION
-------------------------



--------------------------------------------------------------------------
[[2596,1],1]: A high-performance Open MPI point-to-point messaging module
was unable to find any relevant network interfaces:

Module: OpenFabrics (openib)
  Host: cx1-108-19-2

Another transport will be used instead, although this may result in
lower performance.
--------------------------------------------------------------------------


           ************************************************************
           *        Program running with 24 parallel MPI-processes    *
           *              working on a common directory               *
           ************************************************************
------------------------------------------------------------------------------
                           ORCA GTO INTEGRAL CALCULATION
                           -- RI-GTO INTEGRALS CHOSEN --
------------------------------------------------------------------------------

                         BASIS SET STATISTICS AND STARTUP INFO

Gaussian basis set:
 # of primitive gaussian shells          ...  956
 # of primitive gaussian functions       ... 2144
 # of contracted shells                  ...  515
 # of contracted basis functions         ... 1397
 Highest angular momentum                ...    3
 Maximum contraction depth               ...    7
Auxiliary gaussian basis set:
 # of primitive gaussian shells          ... 1102
 # of primitive gaussian functions       ... 3116
 # of contracted shells                  ...  690
 # of contracted aux-basis functions     ... 2150
 Highest angular momentum                ...    4
 Maximum contraction depth               ...    7
Ratio of auxiliary to basis functions    ...  1.54
Integral package used                  ... LIBINT
 One Electron integrals                  
   ECP integrals                         ... done
 Ordering auxiliary basis shells         ... done
 Integral threshhold             Thresh  ...  2.500e-11
 Primitive cut-off               TCut    ...  2.500e-12
 Pre-screening matrix                    ... done
 Shell pair data                         ... 
 Ordering of the shell pairs             ... done (   0.018 sec) 49979 of 132870 pairs
 Determination of significant pairs      ... done (   0.000 sec)
 Creation of shell pair data             ... done (   0.014 sec)
 Storage of shell pair data              ... done (   0.134 sec)
 Shell pair data done in (   0.166 sec)
 Computing two index integrals           ... done
 Cholesky decomposition of the V-matrix  ... done


Timings:
 Total evaluation time                   ...   8.307 sec (  0.138 min)
 One electron matrix time                ...   2.088 sec (  0.035 min) = 25.1%
 Schwartz matrix evaluation time         ...   4.246 sec (  0.071 min) = 51.1%
 Two index repulsion integral time       ...   0.908 sec (  0.015 min) = 10.9%
 Cholesky decomposition of V             ...   0.848 sec (  0.014 min) = 10.2%
 Three index repulsion integral time     ...   0.000 sec (  0.000 min) =  0.0%

--------------------------------------------------------------------------
[[2677,1],6]: A high-performance Open MPI point-to-point messaging module
was unable to find any relevant network interfaces:

Module: OpenFabrics (openib)
  Host: cx1-108-19-2

Another transport will be used instead, although this may result in
lower performance.
--------------------------------------------------------------------------


           ************************************************************
           *        Program running with 24 parallel MPI-processes    *
           *              working on a common directory               *
           ************************************************************
-------------------------------------------------------------------------------
                                 ORCA SCF
-------------------------------------------------------------------------------

------------
SCF SETTINGS
------------
Hamiltonian:
 Density Functional     Method          .... DFT(GTOs)
 Exchange Functional    Exchange        .... WB97X-D3
 Correlation Functional Correlation     .... WB97X-D3
 Gradients option       PostSCFGGA      .... off
 Hybrid DFT is turned on
   Fraction HF Exchange ScalHFX         ....  0.195728
   Scaling of DF-GGA-X  ScalDFX         ....  0.000000
   Scaling of DF-GGA-C  ScalDFC         ....  1.000000
   Scaling of DF-LDA-C  ScalLDAC        ....  1.000000
   Perturbative correction              ....  0.000000
 Long-range corrected/Screened/Range-Separated Hybrid DFT is turned on
   Amount of maximum screened exact exchange              ....  0.804272
   Range separation parameter mu (erf(mu*r12)/r12)        ....  0.250000
 RI-approximation to the Coulomb term is turned on
   Number of auxiliary basis functions  .... 2150
   RIJ-COSX (HFX calculated with COS-X)).... on


General Settings:
 Integral files         IntName         .... total
 Hartree-Fock type      HFTyp           .... RHF
 Total Charge           Charge          ....    0
 Multiplicity           Mult            ....    1
 Number of Electrons    NEL             ....  362
 Basis Dimension        Dim             .... 1397
 Nuclear Repulsion      ENuc            ....   5751.7442838959 Eh

Convergence Acceleration:
 DIIS                   CNVDIIS         .... on
   Start iteration      DIISMaxIt       ....    12
   Startup error        DIISStart       ....  0.200000
   # of expansion vecs  DIISMaxEq       ....     5
   Bias factor          DIISBfac        ....   1.050
   Max. coefficient     DIISMaxC        ....  10.000
 Newton-Raphson         CNVNR           .... off
 SOSCF                  CNVSOSCF        .... on
   Start iteration      SOSCFMaxIt      ....   150
   Startup grad/error   SOSCFStart      ....  0.003300
 Level Shifting         CNVShift        .... on
   Level shift para.    LevelShift      ....    0.2500
   Turn off err/grad.   ShiftErr        ....    0.0010
 Zerner damping         CNVZerner       .... off
 Static damping         CNVDamp         .... on
   Fraction old density DampFac         ....    0.7000
   Max. Damping (<1)    DampMax         ....    0.9800
   Min. Damping (>=0)   DampMin         ....    0.0000
   Turn off err/grad.   DampErr         ....    0.1000
 Fernandez-Rico         CNVRico         .... off

SCF Procedure:
 Maximum # iterations   MaxIter         ....   125
 SCF integral mode      SCFMode         .... Direct
   Integral package                     .... LIBINT
 Reset frequeny         DirectResetFreq ....    20
 Integral Threshold     Thresh          ....  2.500e-11 Eh
 Primitive CutOff       TCut            ....  2.500e-12 Eh

Convergence Tolerance:
 Convergence Check Mode ConvCheckMode   .... Total+1el-Energy
 Convergence forced     ConvForced      .... 1
 Energy Change          TolE            ....  1.000e-08 Eh
 1-El. energy change                    ....  1.000e-05 Eh
 Orbital Gradient       TolG            ....  1.000e-05
 Orbital Rotation angle TolX            ....  1.000e-05
 DIIS Error             TolErr          ....  5.000e-07


Diagonalization of the overlap matrix:
Smallest eigenvalue                        ... 6.245e-06
Time for diagonalization                   ...    0.649 sec
Threshold for overlap eigenvalues          ... 1.000e-08
Number of eigenvalues below threshold      ... 0
Time for construction of square roots      ...    0.740 sec
Total time needed                          ...    1.400 sec

-------------------
DFT GRID GENERATION
-------------------

General Integration Accuracy     IntAcc      ...  5.010
Radial Grid Type                 RadialGrid  ... Gauss-Chebyshev
Angular Grid (max. acc.)         AngularGrid ... Lebedev-434
Angular grid pruning method      GridPruning ... 3 (G Style)
Weight generation scheme         WeightScheme... Becke
Basis function cutoff            BFCut       ...    1.0000e-11
Integration weight cutoff        WCut        ...    1.0000e-14
Grids for H and He will be reduced by one unit

# of grid points (after initial pruning)     ... 522110 (   0.0 sec)
# of grid points (after weights+screening)   ... 465897 (   2.2 sec)
nearest neighbour list constructed           ...    0.0 sec
Grid point re-assignment to atoms done       ...    0.2 sec
Grid point division into batches done        ...    5.4 sec
Reduced shell lists constructed in    6.3 sec

Total number of grid points                  ...   465897
Total number of batches                      ...     7304
Average number of points per batch           ...       63
Average number of grid points per atom       ...     8960
Average number of shells per batch           ...   134.75 (26.17%)
Average number of basis functions per batch  ...   356.05 (25.49%)
Average number of large shells per batch     ...    95.02 (70.51%)
Average number of large basis fcns per batch ...   248.85 (69.89%)
Maximum spatial batch extension              ...   9.99, 21.87, 13.01 au
Average spatial batch extension              ...   0.05,  0.06,  0.05 au

Time for grid setup =   10.363 sec

------------------------------
INITIAL GUESS: MODEL POTENTIAL
------------------------------
Loading Hartree-Fock densities                     ... done
Calculating cut-offs                               ... done
Setting up the integral package                    ... done
Initializing the effective Hamiltonian             ... done
Starting the Coulomb interaction                   ... done (   0.7 sec)
Reading the grid                                   ... done
Mapping shells                                     ... done
Starting the XC term evaluation                    ... done (   2.4 sec)
  promolecular density results
     # of electrons  =    361.994784130
     EX              =   -417.873195939
     EC              =    -13.155486549
     EX+EC           =   -431.028682488
Transforming the Hamiltonian                       ... done (   0.4 sec)
Diagonalizing the Hamiltonian                      ... done (   0.7 sec)
Back transforming the eigenvectors                 ... done (   0.2 sec)
Now organizing SCF variables                       ... done
                      ------------------
                      INITIAL GUESS DONE (  15.1 sec)
                      ------------------
--------------------
COSX GRID GENERATION
--------------------

General Integration Accuracy     IntAcc      ...  3.340
Radial Grid Type                 RadialGrid  ... Gauss-Chebyshev
Angular Grid (max. acc.)         AngularGrid ... Lebedev-50
Angular grid pruning method      GridPruning ... 3 (G Style)
Weight generation scheme         WeightScheme... Becke
Basis function cutoff            BFCut       ...    1.0000e-11
Integration weight cutoff        WCut        ...    1.0000e-14
Grids for H and He will be reduced by one unit

# of grid points (after initial pruning)     ...  28490 (   0.0 sec)
# of grid points (after weights+screening)   ...  26348 (   0.1 sec)
nearest neighbour list constructed           ...    0.0 sec
Grid point re-assignment to atoms done       ...    0.0 sec
Grid point division into batches done        ...    0.0 sec
Reduced shell lists constructed in    0.1 sec

Total number of grid points                  ...    26348
Total number of batches                      ...      438
Average number of points per batch           ...       60
Average number of grid points per atom       ...      507
Average number of shells per batch           ...   150.40 (29.20%)
Average number of basis functions per batch  ...   403.90 (28.91%)
Average number of large shells per batch     ...   109.10 (72.54%)
Average number of large basis fcns per batch ...   291.30 (72.12%)
Maximum spatial batch extension              ...   7.19, 14.41,  5.85 au
Average spatial batch extension              ...   0.15,  0.25,  0.14 au

Overlap Fitting                  UseSFitting ... on
Constructing numerical overlap ... done (      0.1 sec)
Inverting numerical overlap    ... done (      0.3 sec)
Obtaining analytic overlap     ... done (      0.0 sec)
Final contraction and storage  ... done (      0.9 sec)


General Integration Accuracy     IntAcc      ...  3.670
Radial Grid Type                 RadialGrid  ... Gauss-Chebyshev
Angular Grid (max. acc.)         AngularGrid ... Lebedev-50
Angular grid pruning method      GridPruning ... 3 (G Style)
Weight generation scheme         WeightScheme... Becke
Basis function cutoff            BFCut       ...    1.0000e-11
Integration weight cutoff        WCut        ...    1.0000e-14
Grids for H and He will be reduced by one unit

# of grid points (after initial pruning)     ...  35382 (   0.0 sec)
# of grid points (after weights+screening)   ...  32645 (   0.1 sec)
nearest neighbour list constructed           ...    0.0 sec
Grid point re-assignment to atoms done       ...    0.0 sec
Grid point division into batches done        ...    0.0 sec
Reduced shell lists constructed in    0.1 sec

Total number of grid points                  ...    32645
Total number of batches                      ...      539
Average number of points per batch           ...       60
Average number of grid points per atom       ...      628
Average number of shells per batch           ...   148.08 (28.75%)
Average number of basis functions per batch  ...   395.33 (28.30%)
Average number of large shells per batch     ...   105.67 (71.36%)
Average number of large basis fcns per batch ...   280.50 (70.95%)
Maximum spatial batch extension              ...   6.88, 15.31,  6.85 au
Average spatial batch extension              ...   0.13,  0.21,  0.13 au

Overlap Fitting                  UseSFitting ... on
Constructing numerical overlap ... done (      0.2 sec)
Inverting numerical overlap    ... done (      0.3 sec)
Obtaining analytic overlap     ... done (      0.0 sec)
Final contraction and storage  ... done (      0.9 sec)


General Integration Accuracy     IntAcc      ...  4.010
Radial Grid Type                 RadialGrid  ... Gauss-Chebyshev
Angular Grid (max. acc.)         AngularGrid ... Lebedev-110
Angular grid pruning method      GridPruning ... 3 (G Style)
Weight generation scheme         WeightScheme... Becke
Basis function cutoff            BFCut       ...    1.0000e-11
Integration weight cutoff        WCut        ...    1.0000e-14
Grids for H and He will be reduced by one unit

# of grid points (after initial pruning)     ...  69176 (   0.0 sec)
# of grid points (after weights+screening)   ...  63242 (   0.3 sec)
nearest neighbour list constructed           ...    0.0 sec
Grid point re-assignment to atoms done       ...    0.0 sec
Grid point division into batches done        ...    0.1 sec
Reduced shell lists constructed in    0.2 sec

Total number of grid points                  ...    63242
Total number of batches                      ...     1012
Average number of points per batch           ...       62
Average number of grid points per atom       ...     1216
Average number of shells per batch           ...   146.43 (28.43%)
Average number of basis functions per batch  ...   391.57 (28.03%)
Average number of large shells per batch     ...   104.55 (71.40%)
Average number of large basis fcns per batch ...   277.59 (70.89%)
Maximum spatial batch extension              ...   7.71, 19.14,  8.61 au
Average spatial batch extension              ...   0.10,  0.16,  0.10 au

Overlap Fitting                  UseSFitting ... on
Constructing numerical overlap ... done (      0.2 sec)
Inverting numerical overlap    ... done (      0.2 sec)
Obtaining analytic overlap     ... done (      0.0 sec)
Final contraction and storage  ... done (      0.9 sec)

Time for X-Grid setup             =    5.851 sec
--------------
SCF ITERATIONS
--------------
ITER       Energy         Delta-E        Max-DP      RMS-DP      [F,P]     Damp
               ***  Starting incremental Fock matrix formation  ***
  0  -5252.3177967590   0.000000000000 0.17272512  0.00085558  0.1474634 0.7000
  1  -5252.6378014985  -0.320004739506 0.16550525  0.00075112  0.0921624 0.7000
                               ***Turning on DIIS***
  2  -5252.7816673543  -0.143865855758 0.34715708  0.00169729  0.0518398 0.0000
  3  -5253.0186395084  -0.236972154153 0.03874693  0.00029758  0.0346067 0.0000
  4  -5253.0653487469  -0.046709238484 0.02497391  0.00013344  0.0104853 0.0000
  5  -5253.0679582788  -0.002609531885 0.00759369  0.00005618  0.0047849 0.0000
                      *** Initiating the SOSCF procedure ***
                           *** Shutting down DIIS ***
                      *** Re-Reading the Fockian *** 
                      *** Removing any level shift *** 
ITER      Energy       Delta-E        Grad      Rot      Max-DP    RMS-DP
  6  -5253.06877039  -0.0008121126  0.001767  0.001767  0.002568  0.000030
               *** Restarting incremental Fock matrix formation ***
  7  -5253.06906211  -0.0002917204  0.001019  0.002761  0.050824  0.000218
  8  -5253.06918148  -0.0001193718  0.000541  0.003553  0.030161  0.000129
  9  -5253.06920773  -0.0000262510  0.000316  0.000867  0.026424  0.000112
 10  -5253.06922343  -0.0000156976  0.000096  0.000245  0.003631  0.000016
 11  -5253.06922384  -0.0000004074  0.000072  0.000133  0.002359  0.000011
 12  -5253.06922469  -0.0000008519  0.000020  0.000105  0.000486  0.000003
 13  -5253.06922475  -0.0000000569  0.000008  0.000042  0.000768  0.000003
 14  -5253.06922491  -0.0000001610  0.000004  0.000029  0.000743  0.000003
                  ***Gradient check signals convergence***
              ***Rediagonalizing the Fockian in SOSCF/NRSCF***

               *****************************************************
               *                     SUCCESS                       *
               *           SCF CONVERGED AFTER  15 CYCLES          *
               *****************************************************

Old exchange energy                            =   -121.545462497 Eh
New exchange energy                            =   -121.549375341 Eh
Exchange energy change after final integration =     -0.003912844 Eh
Total energy after final integration           =  -5253.073137808 Eh
Final COS-X integration done in                =    67.125 sec

----------------
TOTAL SCF ENERGY
----------------

Total Energy       :        -5253.07313781 Eh         -142943.38718 eV

Components:
Nuclear Repulsion  :         5751.74428390 Eh          156512.91893 eV
Electronic Energy  :       -11004.81742170 Eh         -299456.30611 eV
One Electron Energy:       -18683.62504100 Eh         -508407.28429 eV
Two Electron Energy:         7678.80761929 Eh          208950.97818 eV

Virial components:
Potential Energy   :       -10491.87114806 Eh         -285498.32839 eV
Kinetic Energy     :         5238.79801025 Eh          142554.94121 eV
Virial Ratio       :            2.00272489


DFT components:
N(Alpha)           :      181.000027517324 electrons
N(Beta)            :      181.000027517324 electrons
N(Total)           :      362.000055034649 electrons
E(XC)              :     -314.772150984256 Eh       

---------------
SCF CONVERGENCE
---------------

  Last Energy change         ...   -5.3864e-08  Tolerance :   1.0000e-08
  Last MAX-Density change    ...    1.3146e-13  Tolerance :   1.0000e-07
  Last RMS-Density change    ...    1.4758e-16  Tolerance :   5.0000e-09
  Last Orbital Gradient      ...    2.0964e-06  Tolerance :   1.0000e-05
  Last Orbital Rotation      ...    5.6430e-06  Tolerance :   1.0000e-05

             **** THE GBW FILE WAS UPDATED (total.gbw) ****
             **** DENSITY FILE WAS UPDATED (total.scfp.tmp) ****
             **** ENERGY FILE WAS UPDATED (total.en.tmp) ****
----------------
ORBITAL ENERGIES
----------------

  NO   OCC          E(Eh)            E(eV) 
   0   2.0000     -89.025160     -2422.4978 
   1   2.0000     -89.017237     -2422.2822 
   2   2.0000     -89.003631     -2421.9119 
   3   2.0000     -89.000149     -2421.8172 
   4   2.0000     -88.999449     -2421.7981 
   5   2.0000     -88.998016     -2421.7591 
   6   2.0000     -88.997742     -2421.7517 
   7   2.0000     -88.994024     -2421.6505 
   8   2.0000     -88.990923     -2421.5661 
   9   2.0000     -88.990793     -2421.5626 
  10   2.0000     -14.481830      -394.0706 
  11   2.0000     -14.481534      -394.0626 
  12   2.0000     -14.478352      -393.9760 
  13   2.0000     -14.474858      -393.8809 
  14   2.0000     -14.471987      -393.8028 
  15   2.0000     -10.393728      -282.8277 
  16   2.0000     -10.393322      -282.8167 
  17   2.0000     -10.386897      -282.6418 
  18   2.0000     -10.384418      -282.5744 
  19   2.0000     -10.373031      -282.2645 
  20   2.0000     -10.372285      -282.2442 
  21   2.0000     -10.369421      -282.1663 
  22   2.0000     -10.369230      -282.1611 
  23   2.0000     -10.368688      -282.1463 
  24   2.0000     -10.367307      -282.1088 
  25   2.0000     -10.366580      -282.0890 
  26   2.0000     -10.360977      -281.9365 
  27   2.0000     -10.341742      -281.4131 
  28   2.0000     -10.340914      -281.3906 
  29   2.0000     -10.339773      -281.3595 
  30   2.0000     -10.329711      -281.0857 
  31   2.0000     -10.326956      -281.0107 
  32   2.0000     -10.310667      -280.5675 
  33   2.0000     -10.304846      -280.4091 
  34   2.0000     -10.301715      -280.3239 
  35   2.0000     -10.301182      -280.3094 
  36   2.0000     -10.292755      -280.0801 
  37   2.0000     -10.287403      -279.9345 
  38   2.0000     -10.286412      -279.9075 
  39   2.0000     -10.280649      -279.7507 
  40   2.0000     -10.273485      -279.5557 
  41   2.0000      -8.121806      -221.0056 
  42   2.0000      -8.113969      -220.7923 
  43   2.0000      -8.099647      -220.4026 
  44   2.0000      -8.096167      -220.3079 
  45   2.0000      -8.095432      -220.2879 
  46   2.0000      -8.094056      -220.2505 
  47   2.0000      -8.093774      -220.2428 
  48   2.0000      -8.089945      -220.1386 
  49   2.0000      -8.087100      -220.0612 
  50   2.0000      -8.086965      -220.0575 
  51   2.0000      -6.074831      -165.3046 
  52   2.0000      -6.071130      -165.2039 
  53   2.0000      -6.068795      -165.1403 
  54   2.0000      -6.066896      -165.0886 
  55   2.0000      -6.063221      -164.9886 
  56   2.0000      -6.061105      -164.9310 
  57   2.0000      -6.053950      -164.7363 
  58   2.0000      -6.050462      -164.6414 
  59   2.0000      -6.049751      -164.6221 
  60   2.0000      -6.049660      -164.6196 
  61   2.0000      -6.048348      -164.5839 
  62   2.0000      -6.048068      -164.5763 
  63   2.0000      -6.046223      -164.5261 
  64   2.0000      -6.045458      -164.5053 
  65   2.0000      -6.044568      -164.4811 
  66   2.0000      -6.044439      -164.4775 
  67   2.0000      -6.044093      -164.4681 
  68   2.0000      -6.043812      -164.4605 
  69   2.0000      -6.041439      -164.3959 
  70   2.0000      -6.041303      -164.3922 
  71   2.0000      -6.041086      -164.3863 
  72   2.0000      -6.040349      -164.3662 
  73   2.0000      -6.040156      -164.3610 
  74   2.0000      -6.038996      -164.3294 
  75   2.0000      -6.038707      -164.3216 
  76   2.0000      -6.037167      -164.2797 
  77   2.0000      -6.037031      -164.2760 
  78   2.0000      -6.034333      -164.2025 
  79   2.0000      -6.031908      -164.1366 
  80   2.0000      -6.031771      -164.1328 
  81   2.0000      -1.168244       -31.7895 
  82   2.0000      -1.157259       -31.4906 
  83   2.0000      -1.112265       -30.2663 
  84   2.0000      -1.036804       -28.2129 
  85   2.0000      -1.024568       -27.8799 
  86   2.0000      -1.006386       -27.3852 
  87   2.0000      -0.996642       -27.1200 
  88   2.0000      -0.983564       -26.7641 
  89   2.0000      -0.971992       -26.4492 
  90   2.0000      -0.967379       -26.3237 
  91   2.0000      -0.950457       -25.8633 
  92   2.0000      -0.947455       -25.7816 
  93   2.0000      -0.930603       -25.3230 
  94   2.0000      -0.924538       -25.1580 
  95   2.0000      -0.922643       -25.1064 
  96   2.0000      -0.915087       -24.9008 
  97   2.0000      -0.906494       -24.6670 
  98   2.0000      -0.881125       -23.9766 
  99   2.0000      -0.876057       -23.8387 
 100   2.0000      -0.873795       -23.7772 
 101   2.0000      -0.861882       -23.4530 
 102   2.0000      -0.850935       -23.1551 
 103   2.0000      -0.845505       -23.0074 
 104   2.0000      -0.821619       -22.3574 
 105   2.0000      -0.798468       -21.7274 
 106   2.0000      -0.784333       -21.3428 
 107   2.0000      -0.774736       -21.0816 
 108   2.0000      -0.756347       -20.5813 
 109   2.0000      -0.751487       -20.4490 
 110   2.0000      -0.735775       -20.0215 
 111   2.0000      -0.728438       -19.8218 
 112   2.0000      -0.717595       -19.5268 
 113   2.0000      -0.717267       -19.5178 
 114   2.0000      -0.699043       -19.0219 
 115   2.0000      -0.694260       -18.8918 
 116   2.0000      -0.666481       -18.1359 
 117   2.0000      -0.657295       -17.8859 
 118   2.0000      -0.646758       -17.5992 
 119   2.0000      -0.630357       -17.1529 
 120   2.0000      -0.627309       -17.0700 
 121   2.0000      -0.621329       -16.9072 
 122   2.0000      -0.617770       -16.8104 
 123   2.0000      -0.607589       -16.5333 
 124   2.0000      -0.607266       -16.5246 
 125   2.0000      -0.596900       -16.2425 
 126   2.0000      -0.587194       -15.9784 
 127   2.0000      -0.583446       -15.8764 
 128   2.0000      -0.579060       -15.7570 
 129   2.0000      -0.568979       -15.4827 
 130   2.0000      -0.564689       -15.3660 
 131   2.0000      -0.560221       -15.2444 
 132   2.0000      -0.556781       -15.1508 
 133   2.0000      -0.550093       -14.9688 
 134   2.0000      -0.542746       -14.7689 
 135   2.0000      -0.539944       -14.6926 
 136   2.0000      -0.537658       -14.6304 
 137   2.0000      -0.534568       -14.5463 
 138   2.0000      -0.530047       -14.4233 
 139   2.0000      -0.529586       -14.4108 
 140   2.0000      -0.529304       -14.4031 
 141   2.0000      -0.523768       -14.2525 
 142   2.0000      -0.519424       -14.1342 
 143   2.0000      -0.515521       -14.0280 
 144   2.0000      -0.507392       -13.8068 
 145   2.0000      -0.495709       -13.4889 
 146   2.0000      -0.483493       -13.1565 
 147   2.0000      -0.479455       -13.0466 
 148   2.0000      -0.476238       -12.9591 
 149   2.0000      -0.473083       -12.8732 
 150   2.0000      -0.467958       -12.7338 
 151   2.0000      -0.461445       -12.5565 
 152   2.0000      -0.459778       -12.5112 
 153   2.0000      -0.454796       -12.3756 
 154   2.0000      -0.449910       -12.2427 
 155   2.0000      -0.447153       -12.1677 
 156   2.0000      -0.444600       -12.0982 
 157   2.0000      -0.439441       -11.9578 
 158   2.0000      -0.435982       -11.8637 
 159   2.0000      -0.430032       -11.7018 
 160   2.0000      -0.424802       -11.5594 
 161   2.0000      -0.423408       -11.5215 
 162   2.0000      -0.419299       -11.4097 
 163   2.0000      -0.412959       -11.2372 
 164   2.0000      -0.412622       -11.2280 
 165   2.0000      -0.409929       -11.1547 
 166   2.0000      -0.407501       -11.0887 
 167   2.0000      -0.400482       -10.8977 
 168   2.0000      -0.388138       -10.5618 
 169   2.0000      -0.386512       -10.5175 
 170   2.0000      -0.376903       -10.2561 
 171   2.0000      -0.369159       -10.0453 
 172   2.0000      -0.367641       -10.0040 
 173   2.0000      -0.362863        -9.8740 
 174   2.0000      -0.354295        -9.6409 
 175   2.0000      -0.335957        -9.1419 
 176   2.0000      -0.312897        -8.5144 
 177   2.0000      -0.304730        -8.2921 
 178   2.0000      -0.295775        -8.0484 
 179   2.0000      -0.293366        -7.9829 
 180   2.0000      -0.258311        -7.0290 
 181   0.0000      -0.050107        -1.3635 
 182   0.0000      -0.009064        -0.2466 
 183   0.0000       0.012850         0.3497 
 184   0.0000       0.016271         0.4428 
 185   0.0000       0.017562         0.4779 
 186   0.0000       0.021384         0.5819 
 187   0.0000       0.037925         1.0320 
 188   0.0000       0.044125         1.2007 
 189   0.0000       0.048241         1.3127 
 190   0.0000       0.050628         1.3777 
 191   0.0000       0.062182         1.6921 
 192   0.0000       0.063548         1.7292 
 193   0.0000       0.071697         1.9510 
 194   0.0000       0.076066         2.0699 
 195   0.0000       0.077228         2.1015 
 196   0.0000       0.082015         2.2317 
 197   0.0000       0.085671         2.3312 
 198   0.0000       0.087071         2.3693 
 199   0.0000       0.091060         2.4779 
 200   0.0000       0.097098         2.6422 
 201   0.0000       0.098268         2.6740 
 202   0.0000       0.101513         2.7623 
 203   0.0000       0.105934         2.8826 
 204   0.0000       0.106946         2.9102 
 205   0.0000       0.113577         3.0906 
 206   0.0000       0.124966         3.4005 
 207   0.0000       0.128822         3.5054 
 208   0.0000       0.130535         3.5521 
 209   0.0000       0.132668         3.6101 
 210   0.0000       0.140077         3.8117 
 211   0.0000       0.141767         3.8577 
 212   0.0000       0.147865         4.0236 
 213   0.0000       0.148999         4.0545 
 214   0.0000       0.154150         4.1946 
 215   0.0000       0.161100         4.3838 
 216   0.0000       0.162885         4.4323 
 217   0.0000       0.163921         4.4605 
 218   0.0000       0.166671         4.5354 
 219   0.0000       0.169518         4.6128 
 220   0.0000       0.174626         4.7518 
 221   0.0000       0.180774         4.9191 
 222   0.0000       0.183438         4.9916 
 223   0.0000       0.187272         5.0959 
 224   0.0000       0.192430         5.2363 
 225   0.0000       0.202577         5.5124 
 226   0.0000       0.205482         5.5915 
 227   0.0000       0.207353         5.6424 
 228   0.0000       0.211859         5.7650 
 229   0.0000       0.213722         5.8157 
 230   0.0000       0.216141         5.8815 
 231   0.0000       0.219381         5.9697 
 232   0.0000       0.226582         6.1656 
 233   0.0000       0.233354         6.3499 
 234   0.0000       0.233967         6.3666 
 235   0.0000       0.237677         6.4675 
 236   0.0000       0.245088         6.6692 
 237   0.0000       0.247695         6.7401 
 238   0.0000       0.252961         6.8834 
 239   0.0000       0.255317         6.9475 
 240   0.0000       0.257316         7.0019 
 241   0.0000       0.260751         7.0954 
 242   0.0000       0.261092         7.1047 
 243   0.0000       0.265904         7.2356 
 244   0.0000       0.268787         7.3141 
 245   0.0000       0.272239         7.4080 
 246   0.0000       0.273492         7.4421 
 247   0.0000       0.275497         7.4966 
 248   0.0000       0.279728         7.6118 
 249   0.0000       0.280778         7.6404 
 250   0.0000       0.282829         7.6962 
 251   0.0000       0.283919         7.7258 
 252   0.0000       0.284584         7.7439 
 253   0.0000       0.286092         7.7850 
 254   0.0000       0.286942         7.8081 
 255   0.0000       0.288611         7.8535 
 256   0.0000       0.289787         7.8855 
 257   0.0000       0.292252         7.9526 
 258   0.0000       0.294303         8.0084 
 259   0.0000       0.294807         8.0221 
 260   0.0000       0.298558         8.1242 
 261   0.0000       0.300234         8.1698 
 262   0.0000       0.300514         8.1774 
 263   0.0000       0.301418         8.2020 
 264   0.0000       0.308041         8.3822 
 265   0.0000       0.310047         8.4368 
 266   0.0000       0.310343         8.4449 
 267   0.0000       0.315313         8.5801 
 268   0.0000       0.316403         8.6098 
 269   0.0000       0.320874         8.7314 
 270   0.0000       0.323786         8.8107 
 271   0.0000       0.326066         8.8727 
 272   0.0000       0.327091         8.9006 
 273   0.0000       0.328721         8.9450 
 274   0.0000       0.330787         9.0012 
 275   0.0000       0.333944         9.0871 
 276   0.0000       0.336241         9.1496 
 277   0.0000       0.336842         9.1659 
 278   0.0000       0.338463         9.2100 
 279   0.0000       0.339970         9.2511 
 280   0.0000       0.345143         9.3918 
 281   0.0000       0.345238         9.3944 
 282   0.0000       0.348816         9.4918 
 283   0.0000       0.353944         9.6313 
 284   0.0000       0.356512         9.7012 
 285   0.0000       0.357321         9.7232 
 286   0.0000       0.358653         9.7595 
 287   0.0000       0.362185         9.8556 
 288   0.0000       0.363955         9.9037 
 289   0.0000       0.365899         9.9566 
 290   0.0000       0.366612         9.9760 
 291   0.0000       0.368843        10.0367 
 292   0.0000       0.374209        10.1827 
 293   0.0000       0.374651        10.1948 
 294   0.0000       0.376057        10.2330 
 295   0.0000       0.381612        10.3842 
 296   0.0000       0.384759        10.4698 
 297   0.0000       0.386552        10.5186 
 298   0.0000       0.388108        10.5610 
 299   0.0000       0.391597        10.6559 
 300   0.0000       0.393500        10.7077 
 301   0.0000       0.395803        10.7704 
 302   0.0000       0.397007        10.8031 
 303   0.0000       0.399240        10.8639 
 304   0.0000       0.401567        10.9272 
 305   0.0000       0.404363        11.0033 
 306   0.0000       0.405883        11.0446 
 307   0.0000       0.410106        11.1596 
 308   0.0000       0.412310        11.2195 
 309   0.0000       0.412588        11.2271 
 310   0.0000       0.415231        11.2990 
 311   0.0000       0.417659        11.3651 
 312   0.0000       0.420668        11.4470 
 313   0.0000       0.425567        11.5803 
 314   0.0000       0.428198        11.6519 
 315   0.0000       0.431317        11.7367 
 316   0.0000       0.434812        11.8318 
 317   0.0000       0.435433        11.8487 
 318   0.0000       0.437837        11.9141 
 319   0.0000       0.440492        11.9864 
 320   0.0000       0.441697        12.0192 
 321   0.0000       0.447054        12.1650 
 322   0.0000       0.448896        12.2151 
 323   0.0000       0.450968        12.2715 
 324   0.0000       0.454645        12.3715 
 325   0.0000       0.455817        12.4034 
 326   0.0000       0.458155        12.4670 
 327   0.0000       0.460956        12.5432 
 328   0.0000       0.467496        12.7212 
 329   0.0000       0.467883        12.7317 
 330   0.0000       0.470055        12.7908 
 331   0.0000       0.472014        12.8442 
 332   0.0000       0.473512        12.8849 
 333   0.0000       0.477645        12.9974 
 334   0.0000       0.478417        13.0184 
 335   0.0000       0.480867        13.0850 
 336   0.0000       0.484251        13.1771 
 337   0.0000       0.486595        13.2409 
 338   0.0000       0.487026        13.2527 
 339   0.0000       0.487639        13.2693 
 340   0.0000       0.492168        13.3926 
 341   0.0000       0.493252        13.4221 
 342   0.0000       0.494490        13.4558 
 343   0.0000       0.498350        13.5608 
 344   0.0000       0.500689        13.6244 
 345   0.0000       0.500843        13.6286 
 346   0.0000       0.503407        13.6984 
 347   0.0000       0.507910        13.8209 
 348   0.0000       0.510120        13.8811 
 349   0.0000       0.510667        13.8960 
 350   0.0000       0.514582        14.0025 
 351   0.0000       0.520445        14.1620 
 352   0.0000       0.522098        14.2070 
 353   0.0000       0.526319        14.3219 
 354   0.0000       0.528657        14.3855 
 355   0.0000       0.532292        14.4844 
 356   0.0000       0.533016        14.5041 
 357   0.0000       0.537404        14.6235 
 358   0.0000       0.540203        14.6997 
 359   0.0000       0.541369        14.7314 
 360   0.0000       0.544416        14.8143 
 361   0.0000       0.547820        14.9069 
 362   0.0000       0.549156        14.9433 
 363   0.0000       0.551071        14.9954 
 364   0.0000       0.551654        15.0113 
 365   0.0000       0.556485        15.1427 
 366   0.0000       0.558412        15.1952 
 367   0.0000       0.559884        15.2352 
 368   0.0000       0.561652        15.2833 
 369   0.0000       0.564919        15.3722 
 370   0.0000       0.570215        15.5163 
 371   0.0000       0.570808        15.5325 
 372   0.0000       0.572812        15.5870 
 373   0.0000       0.574697        15.6383 
 374   0.0000       0.576563        15.6891 
 375   0.0000       0.581788        15.8312 
 376   0.0000       0.586773        15.9669 
 377   0.0000       0.592295        16.1172 
 378   0.0000       0.593701        16.1554 
 379   0.0000       0.598410        16.2836 
 380   0.0000       0.602415        16.3925 
 381   0.0000       0.602803        16.4031 
 382   0.0000       0.609623        16.5887 
 383   0.0000       0.610236        16.6054 
 384   0.0000       0.615023        16.7356 
 385   0.0000       0.616014        16.7626 
 386   0.0000       0.622839        16.9483 
 387   0.0000       0.624484        16.9931 
 388   0.0000       0.626507        17.0481 
 389   0.0000       0.629781        17.1372 
 390   0.0000       0.632386        17.2081 
 391   0.0000       0.635372        17.2894 
 392   0.0000       0.639002        17.3881 
 393   0.0000       0.641668        17.4607 
 394   0.0000       0.641938        17.4680 
 395   0.0000       0.646854        17.6018 
 396   0.0000       0.649207        17.6658 
 397   0.0000       0.657056        17.8794 
 398   0.0000       0.660494        17.9730 
 399   0.0000       0.661729        18.0066 
 400   0.0000       0.664046        18.0696 
 401   0.0000       0.670116        18.2348 
 402   0.0000       0.670954        18.2576 
 403   0.0000       0.675100        18.3704 
 404   0.0000       0.678502        18.4630 
 405   0.0000       0.681353        18.5406 
 406   0.0000       0.683562        18.6007 
 407   0.0000       0.684665        18.6307 
 408   0.0000       0.685099        18.6425 
 409   0.0000       0.690389        18.7864 
 410   0.0000       0.692486        18.8435 
 411   0.0000       0.693565        18.8728 
 412   0.0000       0.696951        18.9650 
 413   0.0000       0.700480        19.0610 
 414   0.0000       0.703232        19.1359 
 415   0.0000       0.705436        19.1959 
 416   0.0000       0.711775        19.3684 
 417   0.0000       0.715320        19.4648 
 418   0.0000       0.720189        19.5973 
 419   0.0000       0.721767        19.6403 
 420   0.0000       0.724695        19.7200 
 421   0.0000       0.728382        19.8203 
 422   0.0000       0.729817        19.8593 
 423   0.0000       0.734963        19.9994 
 424   0.0000       0.737422        20.0663 
 425   0.0000       0.737823        20.0772 
 426   0.0000       0.742251        20.1977 
 427   0.0000       0.743646        20.2356 
 428   0.0000       0.747265        20.3341 
 429   0.0000       0.748063        20.3558 
 430   0.0000       0.754212        20.5231 
 431   0.0000       0.758886        20.6503 
 432   0.0000       0.760687        20.6994 
 433   0.0000       0.764124        20.7929 
 434   0.0000       0.768839        20.9212 
 435   0.0000       0.771011        20.9803 
 436   0.0000       0.774414        21.0729 
 437   0.0000       0.776479        21.1291 
 438   0.0000       0.781109        21.2551 
 439   0.0000       0.781343        21.2614 
 440   0.0000       0.784985        21.3605 
 441   0.0000       0.787869        21.4390 
 442   0.0000       0.792704        21.5706 
 443   0.0000       0.795702        21.6522 
 444   0.0000       0.803585        21.8667 
 445   0.0000       0.807320        21.9683 
 446   0.0000       0.809688        22.0327 
 447   0.0000       0.813325        22.1317 
 448   0.0000       0.816809        22.2265 
 449   0.0000       0.818482        22.2720 
 450   0.0000       0.822332        22.3768 
 451   0.0000       0.822898        22.3922 
 452   0.0000       0.824443        22.4342 
 453   0.0000       0.827207        22.5095 
 454   0.0000       0.828657        22.5489 
 455   0.0000       0.832425        22.6514 
 456   0.0000       0.833615        22.6838 
 457   0.0000       0.838009        22.8034 
 458   0.0000       0.840286        22.8654 
 459   0.0000       0.842733        22.9319 
 460   0.0000       0.847098        23.0507 
 461   0.0000       0.848504        23.0890 
 462   0.0000       0.851567        23.1723 
 463   0.0000       0.856286        23.3007 
 464   0.0000       0.861181        23.4339 
 465   0.0000       0.867164        23.5967 
 466   0.0000       0.871039        23.7022 
 467   0.0000       0.874426        23.7943 
 468   0.0000       0.881883        23.9973 
 469   0.0000       0.883222        24.0337 
 470   0.0000       0.887202        24.1420 
 471   0.0000       0.890879        24.2421 
 472   0.0000       0.894025        24.3277 
 473   0.0000       0.899002        24.4631 
 474   0.0000       0.902092        24.5472 
 475   0.0000       0.904157        24.6034 
 476   0.0000       0.905153        24.6305 
 477   0.0000       0.908330        24.7169 
 478   0.0000       0.911740        24.8097 
 479   0.0000       0.916113        24.9287 
 480   0.0000       0.916746        24.9459 
 481   0.0000       0.924960        25.1694 
 482   0.0000       0.929075        25.2814 
 483   0.0000       0.931350        25.3433 
 484   0.0000       0.933650        25.4059 
 485   0.0000       0.937208        25.5027 
 486   0.0000       0.941647        25.6235 
 487   0.0000       0.945690        25.7335 
 488   0.0000       0.947031        25.7700 
 489   0.0000       0.949935        25.8490 
 490   0.0000       0.951249        25.8848 
 491   0.0000       0.957474        26.0542 
 492   0.0000       0.960771        26.1439 
 493   0.0000       0.965973        26.2854 
 494   0.0000       0.977184        26.5905 
 495   0.0000       0.979280        26.6476 
 496   0.0000       0.980667        26.6853 
 497   0.0000       0.985962        26.8294 
 498   0.0000       0.987727        26.8774 
 499   0.0000       0.992200        26.9991 
 500   0.0000       0.995978        27.1020 
 501   0.0000       0.998967        27.1833 
 502   0.0000       1.000415        27.2227 
 503   0.0000       1.006195        27.3800 
 504   0.0000       1.011655        27.5285 
 505   0.0000       1.018997        27.7283 
 506   0.0000       1.019856        27.7517 
 507   0.0000       1.021870        27.8065 
 508   0.0000       1.027855        27.9694 
 509   0.0000       1.031670        28.0732 
 510   0.0000       1.040085        28.3022 
 511   0.0000       1.042602        28.3706 
 512   0.0000       1.055581        28.7238 
 513   0.0000       1.058827        28.8121 
 514   0.0000       1.065551        28.9951 
 515   0.0000       1.067306        29.0429 
 516   0.0000       1.070177        29.1210 
 517   0.0000       1.075934        29.2777 
 518   0.0000       1.081762        29.4362 
 519   0.0000       1.088281        29.6136 
 520   0.0000       1.094718        29.7888 
 521   0.0000       1.095989        29.8234 
 522   0.0000       1.099762        29.9261 
 523   0.0000       1.101726        29.9795 
 524   0.0000       1.110846        30.2277 
 525   0.0000       1.112462        30.2716 
 526   0.0000       1.117857        30.4184 
 527   0.0000       1.121832        30.5266 
 528   0.0000       1.127446        30.6794 
 529   0.0000       1.134034        30.8586 
 530   0.0000       1.137531        30.9538 
 531   0.0000       1.142920        31.1004 
 532   0.0000       1.148325        31.2475 
 533   0.0000       1.156472        31.4692 
 534   0.0000       1.160430        31.5769 
 535   0.0000       1.162110        31.6226 
 536   0.0000       1.169251        31.8169 
 537   0.0000       1.175036        31.9744 
 538   0.0000       1.181553        32.1517 
 539   0.0000       1.186318        32.2814 
 540   0.0000       1.192145        32.4399 
 541   0.0000       1.201717        32.7004 
 542   0.0000       1.204542        32.7773 
 543   0.0000       1.206624        32.8339 
 544   0.0000       1.214444        33.0467 
 545   0.0000       1.221088        33.2275 
 546   0.0000       1.221834        33.2478 
 547   0.0000       1.226070        33.3631 
 548   0.0000       1.229777        33.4639 
 549   0.0000       1.233276        33.5592 
 550   0.0000       1.238332        33.6967 
 551   0.0000       1.242867        33.8201 
 552   0.0000       1.244342        33.8603 
 553   0.0000       1.246114        33.9085 
 554   0.0000       1.248596        33.9760 
 555   0.0000       1.258015        34.2323 
 556   0.0000       1.258262        34.2391 
 557   0.0000       1.264102        34.3980 
 558   0.0000       1.266595        34.4658 
 559   0.0000       1.270802        34.5803 
 560   0.0000       1.276236        34.7282 
 561   0.0000       1.279940        34.8290 
 562   0.0000       1.283286        34.9200 
 563   0.0000       1.289665        35.0936 
 564   0.0000       1.293023        35.1850 
 565   0.0000       1.305706        35.5301 
 566   0.0000       1.310224        35.6530 
 567   0.0000       1.314378        35.7660 
 568   0.0000       1.316852        35.8334 
 569   0.0000       1.319887        35.9159 
 570   0.0000       1.324541        36.0426 
 571   0.0000       1.334346        36.3094 
 572   0.0000       1.345849        36.6224 
 573   0.0000       1.347449        36.6660 
 574   0.0000       1.351073        36.7646 
 575   0.0000       1.358728        36.9729 
 576   0.0000       1.361740        37.0548 
 577   0.0000       1.365155        37.1478 
 578   0.0000       1.371315        37.3154 
 579   0.0000       1.373365        37.3712 
 580   0.0000       1.386867        37.7386 
 581   0.0000       1.388687        37.7881 
 582   0.0000       1.397651        38.0320 
 583   0.0000       1.400654        38.1137 
 584   0.0000       1.403066        38.1794 
 585   0.0000       1.415239        38.5106 
 586   0.0000       1.419401        38.6239 
 587   0.0000       1.425826        38.7987 
 588   0.0000       1.430027        38.9130 
 589   0.0000       1.444488        39.3065 
 590   0.0000       1.451558        39.4989 
 591   0.0000       1.455937        39.6181 
 592   0.0000       1.457937        39.6725 
 593   0.0000       1.464843        39.8604 
 594   0.0000       1.468924        39.9715 
 595   0.0000       1.470618        40.0175 
 596   0.0000       1.473968        40.1087 
 597   0.0000       1.478219        40.2244 
 598   0.0000       1.483416        40.3658 
 599   0.0000       1.486265        40.4433 
 600   0.0000       1.488021        40.4911 
 601   0.0000       1.492424        40.6109 
 602   0.0000       1.494689        40.6725 
 603   0.0000       1.497338        40.7447 
 604   0.0000       1.502120        40.8748 
 605   0.0000       1.503072        40.9007 
 606   0.0000       1.505975        40.9797 
 607   0.0000       1.512128        41.1471 
 608   0.0000       1.516296        41.2605 
 609   0.0000       1.521882        41.4125 
 610   0.0000       1.525472        41.5102 
 611   0.0000       1.529068        41.6081 
 612   0.0000       1.535250        41.7763 
 613   0.0000       1.539027        41.8790 
 614   0.0000       1.541608        41.9493 
 615   0.0000       1.544339        42.0236 
 616   0.0000       1.546092        42.0713 
 617   0.0000       1.551462        42.2174 
 618   0.0000       1.555025        42.3144 
 619   0.0000       1.559341        42.4318 
 620   0.0000       1.561267        42.4842 
 621   0.0000       1.562298        42.5123 
 622   0.0000       1.569312        42.7032 
 623   0.0000       1.573002        42.8036 
 624   0.0000       1.580808        43.0160 
 625   0.0000       1.582297        43.0565 
 626   0.0000       1.583798        43.0973 
 627   0.0000       1.589813        43.2610 
 628   0.0000       1.590388        43.2767 
 629   0.0000       1.591915        43.3182 
 630   0.0000       1.594116        43.3781 
 631   0.0000       1.594301        43.3831 
 632   0.0000       1.600887        43.5623 
 633   0.0000       1.602991        43.6196 
 634   0.0000       1.603648        43.6375 
 635   0.0000       1.605376        43.6845 
 636   0.0000       1.606353        43.7111 
 637   0.0000       1.609223        43.7892 
 638   0.0000       1.613315        43.9005 
 639   0.0000       1.613689        43.9107 
 640   0.0000       1.616775        43.9947 
 641   0.0000       1.621278        44.1172 
 642   0.0000       1.623193        44.1693 
 643   0.0000       1.626063        44.2474 
 644   0.0000       1.627530        44.2874 
 645   0.0000       1.628450        44.3124 
 646   0.0000       1.629440        44.3393 
 647   0.0000       1.631773        44.4028 
 648   0.0000       1.633665        44.4543 
 649   0.0000       1.636662        44.5358 
 650   0.0000       1.639394        44.6102 
 651   0.0000       1.642808        44.7031 
 652   0.0000       1.646244        44.7966 
 653   0.0000       1.647558        44.8323 
 654   0.0000       1.648895        44.8687 
[...]
 356   9.346     132.7   0.016709   0.013541  19.743369  17.178140     0.04 (  68->  99)    0.02 (  74->  97)    0.02 (  93-> 111)
 357   9.361     132.4   0.021635   0.019800  -40.608394  -38.535148     0.02 (  89-> 100)    0.02 (  95-> 114)    0.02 (  87-> 102)
 358   9.368     132.3   0.004267   0.004100  12.186552  13.608158     0.03 (  72-> 108)    0.03 (  83-> 121)    0.03 (  68->  99)
 359   9.373     132.3   0.020088   0.016814  -27.698471  -26.847592     0.02 (  68->  99)    0.02 (  96-> 124)    0.02 (  79-> 112)
 360   9.376     132.2   0.018061   0.016490  -14.489545  -13.094055     0.03 (  72-> 108)    0.03 (  85->  99)    0.03 (  90-> 102)
 361   9.383     132.1   0.007506   0.007001   8.425650   8.084107     0.02 (  81-> 109)    0.02 (  96-> 126)    0.02 (  93-> 111)
 362   9.386     132.1   0.005504   0.005613  -38.467087  -37.839372     0.06 (  90-> 102)    0.03 (  96-> 126)    0.03 (  90-> 100)
 363   9.389     132.0   0.014392   0.012315  23.872657  23.336918     0.04 (  94-> 112)    0.04 (  95-> 112)    0.04 (  95-> 118)
 364   9.402     131.9   0.001291   0.001705   3.268138   3.602431     0.02 (  85->  99)    0.02 (  68->  99)    0.02 (  90-> 102)
 365   9.405     131.8   0.017149   0.013772  -5.476795  -6.307773     0.13 (  68->  99)    0.02 (  79-> 112)    0.02 (  85->  99)
 366   9.417     131.7   0.009293   0.007867  -0.496937   0.737083     0.03 (  85->  99)    0.02 (  87->  99)    0.01 (  71-> 105)
 367   9.423     131.6   0.010554   0.009476  22.834484  22.257917     0.05 (  72-> 108)    0.03 (  68->  99)    0.02 (  87-> 102)
 368   9.429     131.5   0.026618   0.023848  31.390999  27.977784     0.06 (  68->  99)    0.03 (  68-> 113)    0.03 (  90-> 102)
 369   9.437     131.4   0.006602   0.005915   0.613156   0.362157     0.02 (  94-> 110)    0.02 (  96-> 124)    0.02 (  95-> 122)
 370   9.448     131.2   0.004322   0.004098   3.826810   4.449266     0.04 (  95-> 115)    0.03 (  94-> 114)    0.02 (  71-> 110)
 371   9.451     131.2   0.011542   0.009294   6.033269   3.635602     0.02 (  74-> 113)    0.02 (  72-> 108)    0.02 (  67-> 104)
 372   9.452     131.2   0.003554   0.003099  14.465163  11.425671     0.03 (  85->  99)    0.01 (  96-> 124)    0.01 (  81->  98)
 373   9.466     131.0   0.006811   0.006119   6.789221   6.415778     0.03 (  85->  99)    0.02 (  91-> 107)    0.02 (  88-> 101)
 374   9.468     131.0   0.003959   0.003227   9.639388   7.081142     0.03 (  95-> 115)    0.02 (  68->  99)    0.02 (  68-> 113)
 375   9.473     130.9   0.007823   0.005578  -12.420175  -10.366434     0.03 (  89-> 128)    0.02 (  85-> 103)    0.01 (  91-> 124)
 376   9.477     130.8   0.035520   0.029775  -3.439725  -0.977625     0.04 (  89-> 128)    0.02 (  85->  99)    0.02 (  47->  97)
 377   9.484     130.7   0.008211   0.006696   2.821092   4.189901     0.03 (  83->  99)    0.02 (  61->  99)    0.02 (  93-> 145)
 378   9.487     130.7   0.005282   0.005916  -15.186810  -18.019074     0.03 (  91-> 107)    0.02 (  87-> 102)    0.02 (  95-> 115)
 379   9.495     130.6   0.071980   0.058536  13.954583  13.587263     0.05 (  85->  99)    0.03 (  61->  99)    0.02 (  83->  99)
 380   9.497     130.5   0.011746   0.010264  37.917501  35.484915     0.02 (  85->  99)    0.01 (  96-> 124)    0.01 (  88-> 101)
 381   9.500     130.5   0.006496   0.005233  23.682533  20.918739     0.04 (  83->  99)    0.02 (  89-> 128)    0.02 (  85->  99)
 382   9.505     130.4   0.008613   0.006394  16.113534  14.838137     0.05 (  87-> 102)    0.04 (  88-> 101)    0.03 (  87-> 101)
 383   9.516     130.3   0.037936   0.031816  -13.541551  -11.631473     0.03 (  95-> 118)    0.03 (  86-> 101)    0.02 (  89-> 128)
 384   9.519     130.3   0.041574   0.034876  11.540071   9.119077     0.03 (  87-> 102)    0.03 (  85->  99)    0.02 (  93-> 114)
 385   9.520     130.2   0.020624   0.018808  10.736327  10.982180     0.02 (  88-> 103)    0.02 (  91-> 106)    0.01 (  68->  99)
 386   9.532     130.1   0.029364   0.025298  -8.440873  -4.078400     0.09 (  83->  99)    0.03 (  85->  99)    0.03 (  78->  99)
 387   9.543     129.9   0.011273   0.009287  28.141733  24.634760     0.03 (  85-> 103)    0.02 (  87-> 103)    0.02 (  85-> 105)
 388   9.545     129.9   0.012942   0.011411  -28.375964  -26.833066     0.05 (  85->  99)    0.01 (  64->  99)    0.01 (  76->  99)
 389   9.554     129.8   0.022317   0.016088  20.318993  19.452660     0.02 (  95-> 113)    0.02 (  91-> 129)    0.02 (  94-> 113)
 390   9.557     129.7   0.097827   0.082798  -14.194070  -13.844088     0.03 (  92-> 110)    0.03 (  87-> 103)    0.02 (  87-> 102)
 391   9.558     129.7   0.009801   0.007843   6.939643   7.145781     0.04 (  87-> 102)    0.02 (  87-> 100)    0.02 (  72-> 107)
 392   9.566     129.6   0.025609   0.022292   4.128265   3.764907     0.06 (  93-> 114)    0.03 (  91-> 104)    0.02 (  81->  98)
 393   9.567     129.6   0.014183   0.011918   4.731463   4.831298     0.05 (  87-> 102)    0.03 (  87-> 100)    0.03 (  93-> 114)
 394   9.574     129.5   0.009203   0.008166  11.632554  10.119263     0.03 (  93-> 114)    0.02 (  95-> 113)    0.02 (  94-> 113)
 395   9.575     129.5   0.005318   0.004079  -28.587474  -27.212352     0.03 (  93-> 114)    0.02 (  94-> 113)    0.02 (  95-> 113)
 396   9.580     129.4   0.013470   0.011658   6.491372   6.762437     0.04 (  77-> 113)    0.04 (  91-> 106)    0.03 (  72-> 113)
 397   9.591     129.3   0.008904   0.007655  10.149573  11.315432     0.05 (  94-> 113)    0.04 (  95-> 113)    0.03 (  77-> 113)
 398   9.597     129.2   0.006679   0.006177   6.068187   6.470086     0.02 (  92-> 112)    0.02 (  87-> 102)    0.02 (  91-> 107)
 399   9.599     129.2   0.004336   0.003640  -2.260906  -3.749538     0.03 (  91-> 106)    0.02 (  89-> 134)    0.02 (  91-> 107)
 400   9.609     129.0   0.022523   0.017705  -18.394349  -17.907433     0.02 (  94-> 115)    0.02 (  94-> 113)    0.02 (  95-> 113)
 401   9.612     129.0   0.005533   0.005069  -32.323263  -32.686079     0.02 (  87-> 102)    0.02 (  94-> 113)    0.02 (  81->  98)
 402   9.614     129.0   0.016095   0.014418   0.183377  -0.367590     0.21 (  94-> 113)    0.12 (  95-> 113)    0.02 (  81->  98)
 403   9.624     128.8   0.038298   0.032716  -10.182499  -9.179905     0.04 (  65->  97)    0.02 (  70-> 118)    0.02 (  65-> 101)
 404   9.625     128.8   0.009856   0.007605  21.652420  20.793768     0.02 (  88-> 102)    0.02 (  91-> 108)    0.02 (  87-> 101)
 405   9.634     128.7   0.002372   0.001670  -8.920420  -6.603810     0.05 (  91-> 106)    0.03 (  83->  99)    0.02 (  96-> 124)
 406   9.638     128.6   0.058983   0.049432  -7.629640  -5.618932     0.04 (  91-> 104)    0.04 (  77-> 113)    0.03 (  72-> 113)
 407   9.647     128.5   0.017144   0.014892  -12.353662  -12.416840     0.02 (  94-> 113)    0.02 (  81->  98)    0.02 (  96-> 124)
 408   9.649     128.5   0.005037   0.003969  -7.239959  -5.992668     0.01 (  74-> 116)    0.01 (  96-> 150)    0.01 (  94-> 113)
 409   9.659     128.4   0.046863   0.037986  10.389841   8.892816     0.02 (  65->  97)    0.01 (  93-> 142)    0.01 (  96-> 124)
 410   9.664     128.3   0.010893   0.010234  -11.578969  -11.410497     0.02 (  77-> 113)    0.01 (  66->  97)    0.01 (  83-> 127)
 411   9.673     128.2   0.008797   0.008417  -1.227701  -0.568729     0.02 (  87-> 104)    0.01 (  90-> 102)    0.01 (  84-> 100)
 412   9.676     128.1   0.029796   0.023351  -2.030508   1.967024     0.03 (  74-> 113)    0.02 (  95-> 116)    0.02 (  95-> 115)
 413   9.690     128.0   0.010257   0.008600   1.963433   2.450104     0.05 (  66->  97)    0.04 (  96-> 124)    0.03 (  54->  97)
 414   9.692     127.9   0.006941   0.006047   5.499272   5.585058     0.04 (  96-> 124)    0.03 (  96-> 125)    0.03 (  92-> 112)
 415   9.695     127.9   0.013678   0.009824  19.366466  16.437517     0.03 (  85-> 105)    0.02 (  65->  97)    0.02 (  96-> 124)
 416   9.703     127.8   0.086601   0.069280  42.718425  37.793512     0.09 (  81->  98)    0.02 (  67-> 104)    0.02 (  65->  97)
 417   9.706     127.7   0.034307   0.030808  10.562806  10.633012     0.06 (  81->  98)    0.02 (  74-> 113)    0.01 (  83-> 122)
 418   9.712     127.7   0.105447   0.086920  10.872782  12.053942     0.06 (  81->  98)    0.02 (  74-> 106)    0.02 (  83-> 126)
 419   9.713     127.6   0.045751   0.038123  -26.179597  -24.846549     0.02 (  87-> 106)    0.02 (  74-> 113)    0.01 (  75-> 113)
 420   9.721     127.5   0.016169   0.013832   1.223583   2.187615     0.03 (  87-> 106)    0.02 (  74-> 106)    0.02 (  69-> 106)
 421   9.724     127.5   0.067541   0.058817  33.444448  30.146955     0.07 (  81->  98)    0.05 (  96-> 124)    0.03 (  96-> 125)
 422   9.731     127.4   0.003506   0.003318   6.336482   5.451879     0.02 (  81->  98)    0.02 (  85-> 105)    0.02 (  95-> 118)
 423   9.734     127.4   0.017714   0.013315  -33.831960  -29.326901     0.02 (  96-> 124)    0.02 (  93-> 114)    0.01 (  96-> 125)
 424   9.740     127.3   0.028287   0.022301  36.426153  31.900648     0.03 (  72-> 107)    0.02 (  92-> 112)    0.01 (  91-> 107)
 425   9.746     127.2   0.019419   0.015433  -9.504370  -6.459865     0.03 (  72-> 107)    0.02 (  81->  98)    0.01 (  90-> 104)
 426   9.753     127.1   0.004472   0.002944  10.868529  10.703523     0.02 (  81->  98)    0.01 (  86-> 100)    0.01 (  94-> 120)
 427   9.761     127.0   0.006546   0.005550  -23.823854  -21.632754     0.03 (  72-> 107)    0.02 (  93-> 114)    0.01 (  72-> 111)
 428   9.769     126.9   0.014675   0.011454  -2.857818  -3.146408     0.03 (  84->  99)    0.02 (  78->  99)    0.02 (  86->  99)
 429   9.774     126.8   0.026979   0.022546  26.304487  25.143768     0.02 (  96-> 150)    0.02 (  94-> 120)    0.02 (  95-> 116)
 430   9.776     126.8   0.089809   0.073593  16.534935  17.617099     0.02 (  90-> 105)    0.01 (  94-> 115)    0.01 (  87-> 106)
 431   9.782     126.7   0.040279   0.033505  -22.593889  -21.244915     0.02 (  77->  98)    0.02 (  73-> 100)    0.01 (  84->  99)
 432   9.788     126.7   0.006710   0.006647  -18.231366  -18.519587     0.03 (  84->  99)    0.03 (  67-> 107)    0.02 (  83->  99)
 433   9.795     126.6   0.069893   0.058744  -94.803450  -88.959807     0.07 (  84->  99)    0.03 (  86->  99)    0.03 (  83->  99)
 434   9.800     126.5   0.001052   0.000615  -2.299298  -2.015305     0.02 (  84->  99)    0.02 (  93-> 113)    0.01 (  95-> 117)
 435   9.804     126.5   0.006934   0.005532  12.602373  11.155097     0.04 (  74-> 106)    0.02 (  87-> 118)    0.02 (  90-> 106)
 436   9.812     126.4   0.004740   0.005143  -0.700165   0.087922     0.03 (  47->  97)    0.02 (  90-> 104)    0.02 (  94-> 120)
 437   9.812     126.4   0.033035   0.028392  29.206068  25.755591     0.03 (  77->  98)    0.03 (  72-> 107)    0.02 (  47->  97)
 438   9.821     126.2   0.015803   0.013294  -9.727395  -9.571738     0.03 (  96-> 125)    0.03 (  96-> 127)    0.03 (  96-> 124)
 439   9.823     126.2   0.007455   0.006281   2.665383   2.768724     0.05 (  94-> 120)    0.03 (  95-> 120)    0.02 (  77->  98)
 440   9.826     126.2   0.011262   0.009569  -0.770235  -1.119896     0.03 (  47->  97)    0.03 (  79-> 105)    0.02 (  85-> 105)
 441   9.834     126.1   0.010235   0.008192   1.639860   0.491058     0.03 (  74-> 106)    0.02 (  92-> 112)    0.02 (  95-> 118)
 442   9.841     126.0   0.016580   0.015085  -18.413908  -17.418081     0.02 (  93-> 115)    0.02 (  74-> 106)    0.02 (  89-> 134)
 443   9.843     126.0   0.007693   0.005795  -6.195998  -6.099705     0.07 (  89-> 134)    0.03 (  87-> 134)    0.02 (  88-> 134)
 444   9.854     125.8   0.002698   0.001966  13.340855  11.258495     0.03 (  88-> 104)    0.03 (  90-> 104)    0.02 (  87-> 104)
 445   9.855     125.8   0.039998   0.033286  -23.845931  -20.872369     0.02 (  93-> 115)    0.01 (  83-> 126)    0.01 (  96-> 125)
 446   9.859     125.8   0.024401   0.019829   0.694403  -0.538579     0.05 (  93-> 115)    0.04 (  74-> 106)    0.03 (  93-> 116)
 447   9.868     125.6   0.032019   0.027809  -46.058637  -43.109753     0.10 (  93-> 113)    0.04 (  95-> 120)    0.02 (  94-> 118)
 448   9.870     125.6   0.016232   0.012999  44.197319  39.478989     0.05 (  93-> 113)    0.03 (  93-> 115)    0.02 (  93-> 116)
 449   9.878     125.5   0.025045   0.020738  43.055722  41.004510     0.09 (  93-> 113)    0.03 (  91-> 135)    0.02 (  94-> 145)
 450   9.881     125.5   0.006396   0.005397  -1.241760   0.055949     0.06 (  93-> 113)    0.02 (  91-> 135)    0.02 (  90-> 132)
 451   9.883     125.4   0.000441   0.000299   3.812497   2.887037     0.36 (  93-> 113)    0.05 (  93-> 115)    0.02 (  93-> 116)
 452   9.891     125.4   0.013757   0.010730  21.263573  19.466787     0.02 (  91-> 108)    0.02 (  87-> 104)    0.02 (  91-> 107)
 453   9.900     125.2   0.010906   0.008277   1.354111   1.010936     0.05 (  93-> 113)    0.02 (  94-> 116)    0.02 (  96-> 126)
 454   9.905     125.2   0.061577   0.053209  -37.217179  -35.895139     0.13 (  94-> 117)    0.09 (  95-> 117)    0.06 (  94-> 116)
 455   9.908     125.1   0.008238   0.006675  -0.808916  -4.658620     0.04 (  93-> 115)    0.03 (  93-> 116)    0.02 (  93-> 113)
 456   9.912     125.1   0.017216   0.012353  -55.030221  -47.941459     0.02 (  77->  98)    0.02 (  94-> 117)    0.02 (  95-> 117)
 457   9.915     125.0   0.020335   0.018713   4.916378   3.196030     0.12 (  94-> 117)    0.08 (  95-> 117)    0.05 (  94-> 116)
 458   9.922     125.0   0.055769   0.047634  -18.759314  -17.371671     0.04 (  53->  98)    0.02 (  90-> 104)    0.02 (  65->  97)
 459   9.923     124.9   0.014221   0.010274  12.190413  10.197527     0.02 (  91-> 111)    0.02 (  93-> 116)    0.02 (  84->  99)
 460   9.930     124.9   0.017078   0.014263  12.169872  11.112779     0.03 (  91-> 108)    0.02 (  95-> 119)    0.02 (  77->  98)
 461   9.934     124.8   0.009497   0.008173  -2.553510  -2.135015     0.03 (  86-> 100)    0.02 (  93-> 147)    0.02 (  93-> 144)
 462   9.939     124.7   0.016696   0.013766   5.719421   5.694489     0.02 (  92-> 115)    0.02 (  92-> 112)    0.01 (  66->  97)
 463   9.947     124.6   0.024502   0.019799  -1.271588   0.204651     0.07 (  95-> 119)    0.04 (  84->  99)    0.03 (  94-> 119)
 464   9.952     124.6   0.004385   0.003245   2.555443   5.497722     0.08 (  96-> 126)    0.04 (  95-> 119)    0.04 (  96-> 127)
 465   9.958     124.5   0.048361   0.040435  -0.825832  -0.083381     0.02 (  90-> 106)    0.02 (  80-> 102)    0.02 (  75-> 106)
 466   9.961     124.5   0.000306   0.000168   5.412416   3.525896     0.05 (  95-> 119)    0.02 (  94-> 119)    0.02 (  90-> 106)
 467   9.967     124.4   0.008797   0.008391  20.368589  19.308615     0.02 (  53->  98)    0.02 (  53->  97)    0.01 (  90-> 104)
 468   9.973     124.3   0.018207   0.014664   2.544108   1.841118     0.02 (  87-> 104)    0.02 (  85-> 102)    0.02 (  67-> 108)
 469   9.975     124.3   0.051936   0.044374  27.006661  25.679195     0.05 (  95-> 119)    0.02 (  94-> 119)    0.02 (  77->  98)
 470   9.977     124.3   0.007086   0.005901  29.865893  27.105456     0.03 (  84->  99)    0.02 (  85-> 104)    0.02 (  85->  99)
 471   9.981     124.2   0.007735   0.006924  -52.524436  -47.556835     0.03 (  96-> 126)    0.02 (  75-> 106)    0.02 (  67-> 106)
 472   9.987     124.1   0.086596   0.066956  -37.629162  -34.049722     0.05 (  90-> 106)    0.04 (  75-> 106)    0.03 (  43->  97)
 473   9.991     124.1   0.044442   0.036441  14.251568   7.239620     0.04 (  85-> 102)    0.01 (  85-> 100)    0.01 (  80-> 121)
 474  10.000     124.0   0.011930   0.009181  35.251969  31.268063     0.02 (  75-> 106)    0.02 (  81-> 108)    0.01 (  96-> 126)

sTD-DFT done

Total run time:      134.914 sec

           *** ORCA-CIS/TD-DFT FINISHED WITHOUT ERROR ***


-------------------------------------------------------------------------------
                          DFT DISPERSION CORRECTION                            
                                                                               
                              DFTD3 V3.1  Rev 1                                
                              USING zero damping                               
-------------------------------------------------------------------------------
The omegaB97X-D3 functional is recognized. Fit by Chai et al.
Active option DFTDOPT                   ...         3   

molecular C6(AA) [au] = 79531.305629 


            DFT-D V3
 parameters
 s6 scaling factor         :     1.0000 
 rs6 scaling factor        :     1.2810 
 s8 scaling factor         :     1.0000 
 rs8 scaling factor        :     1.0940 
 Damping factor alpha6     :    14.0000 
 Damping factor alpha8     :    16.0000 
 ad hoc parameters k1-k3   :    16.0000     1.3333    -4.0000 

 Edisp/kcal,au: -15.746222484452  -0.025093200112 
 E6   /kcal   :  -7.153711880 
 E8   /kcal   :  -8.592510605 
 % E8         :  54.568710770 

-------------------------   ----------------
Dispersion correction           -0.025093200
-------------------------   ----------------


-------------------------   --------------------
FINAL SINGLE POINT ENERGY     -5253.098230820665
-------------------------   --------------------


                            ***************************************
                            *     ORCA property calculations      *
                            ***************************************

                                    ---------------------
                                    Active property flags
                                    ---------------------
   (+) Dipole Moment
   (+) Quadrupole Moment


------------------------------------------------------------------------------
                       ORCA ELECTRIC PROPERTIES CALCULATION
------------------------------------------------------------------------------

Dipole Moment Calculation                       ... on
Quadrupole Moment Calculation                   ... on
Polarizability Calculation                      ... off
GBWName                                         ... total_job2.gbw
Electron density file                           ... total_job2.scfp.tmp

-------------
DIPOLE MOMENT
-------------
                                X             Y             Z
Electronic contribution:     53.38571       5.05571      11.71990
Nuclear contribution   :    -54.22171      -7.01425     -10.53183
                        -----------------------------------------
Total Dipole Moment    :     -0.83600      -1.95855       1.18807
                        -----------------------------------------
Magnitude (a.u.)       :      2.43851
Magnitude (Debye)      :      6.19819


------------------------
QUADRUPOLE MOMENT (A.U.)
------------------------

                XX           YY           ZZ           XY           XZ           YZ
  NUC     72085.24252   1466.64410   4424.57807   3481.23350    598.25198   -579.70344
  EL     -72214.83440  -1699.26180  -4643.14221  -3447.85649   -609.70772    574.41747
  TOT      -129.59188   -232.61770   -218.56414     33.37701    -11.45574     -5.28597

--------------------------------------------------------------------------
[[2497,1],5]: A high-performance Open MPI point-to-point messaging module
was unable to find any relevant network interfaces:

Module: OpenFabrics (openib)
  Host: cx1-108-19-2

Another transport will be used instead, although this may result in
lower performance.
--------------------------------------------------------------------------

Timings for individual modules:

Sum of individual times         ...      372.478 sec (=   6.208 min)
GTO integral calculation        ...        8.923 sec (=   0.149 min)   2.4 %
SCF iterations                  ...      212.823 sec (=   3.547 min)  57.1 %
CIS module                      ...      150.732 sec (=   2.512 min)  40.5 %



                             ****ORCA TERMINATED NORMALLY****
TOTAL RUN TIME: 0 days 0 hours 19 minutes 58 seconds 234 msec
